
     Program PWSCF v.7.0 starts on 19Mar2022 at 20:29:52 

     This program is part of the open-source Quantum ESPRESSO suite
     for quantum simulation of materials; please cite
         "P. Giannozzi et al., J. Phys.:Condens. Matter 21 395502 (2009);
         "P. Giannozzi et al., J. Phys.:Condens. Matter 29 465901 (2017);
         "P. Giannozzi et al., J. Chem. Phys. 152 154105 (2020);
          URL http://www.quantum-espresso.org", 
     in publications or presentations arising from this work. More details at
     http://www.quantum-espresso.org/quote

     Parallel version (MPI), running on     1 processors

     MPI processes distributed on     1 nodes
     0 MiB available memory on the printing compute node when the environment starts

     Reading input from fe.scf.bcc.in
Warning: card &CELL ignored
Warning: card / ignored

     Current dimensions of program PWSCF are:
     Max number of different atomic species (ntypx) = 10
     Max number of k-points (npk) =  40000
     Max angular momentum in pseudopotentials (lmaxx) =  4
     file Fe.pbe-spn-kjpaw_psl.0.2.1.UPF: wavefunction(s)  3D renormalized

     Subspace diagonalization in iterative solution of the eigenvalue problem:
     a serial algorithm will be used


     G-vector sticks info
     --------------------
     sticks:   dense  smooth     PW     G-vecs:    dense   smooth      PW
     Sum         467     229     83                 6363     2243     459

     Using Slab Decomposition



     bravais-lattice index     =            3
     lattice parameter (alat)  =       6.4200  a.u.
     unit-cell volume          =     132.3046 (a.u.)^3
     number of atoms/cell      =            1
     number of atomic types    =            1
     number of electrons       =        16.00
     number of Kohn-Sham states=           12
     kinetic-energy cutoff     =      25.0000  Ry
     charge density cutoff     =     200.0000  Ry
     scf convergence threshold =      1.0E-06
     mixing beta               =       0.7000
     number of iterations used =            8  plain     mixing
     Exchange-correlation= SLA  PW   PBX  PBC
                           (   1   4   3   4   0   0   0)

     celldm(1)=   6.420000  celldm(2)=   0.000000  celldm(3)=   0.000000
     celldm(4)=   0.000000  celldm(5)=   0.000000  celldm(6)=   0.000000

     crystal axes: (cart. coord. in units of alat)
               a(1) = (   0.500000   0.500000   0.500000 )  
               a(2) = (  -0.500000   0.500000   0.500000 )  
               a(3) = (  -0.500000  -0.500000   0.500000 )  

     reciprocal axes: (cart. coord. in units 2 pi/alat)
               b(1) = (  1.000000  0.000000  1.000000 )  
               b(2) = ( -1.000000  1.000000  0.000000 )  
               b(3) = (  0.000000 -1.000000  1.000000 )  


     PseudoPot. # 1 for Fe read from file:
     ./Fe.pbe-spn-kjpaw_psl.0.2.1.UPF
     MD5 check sum: e86618425769142926afa95317d90200
     Pseudo is Projector augmented-wave + core cor, Zval = 16.0
     Generated using "atomic" code by A. Dal Corso  v.5.0.99 svn rev. 10869
     Shape of augmentation charge: PSQ
     Using radial grid of 1191 points,  6 beta functions with: 
                l(1) =   0
                l(2) =   0
                l(3) =   1
                l(4) =   1
                l(5) =   2
                l(6) =   2
     Q(r) pseudized with 0 coefficients 


     atomic species   valence    mass     pseudopotential
        Fe            16.00    55.84500     Fe( 1.00)

     Starting magnetic structure 
     atomic species   magnetization
        Fe           0.600

     48 Sym. Ops., with inversion, found



   Cartesian axes

     site n.     atom                  positions (alat units)
         1           Fe  tau(   1) = (   0.0000000   0.0000000   0.0000000  )

     number of k points=    29  Marzari-Vanderbilt smearing, width (Ry)=  0.0100
                       cart. coord. in units 2pi/alat
        k(    1) = (   0.0000000   0.0000000   0.0000000), wk =   0.0019531
        k(    2) = (   0.0000000  -0.1250000   0.1250000), wk =   0.0234375
        k(    3) = (   0.0000000  -0.2500000   0.2500000), wk =   0.0234375
        k(    4) = (   0.0000000  -0.3750000   0.3750000), wk =   0.0234375
        k(    5) = (   0.0000000   0.5000000  -0.5000000), wk =   0.0117188
        k(    6) = (  -0.1250000  -0.1250000   0.2500000), wk =   0.0468750
        k(    7) = (  -0.1250000  -0.2500000   0.3750000), wk =   0.0937500
        k(    8) = (  -0.1250000   0.6250000  -0.5000000), wk =   0.0937500
        k(    9) = (  -0.2500000   0.7500000  -0.5000000), wk =   0.0468750
        k(   10) = (  -0.2500000   0.6250000  -0.3750000), wk =   0.0468750
        k(   11) = (   0.0000000   0.0000000   0.2500000), wk =   0.0117188
        k(   12) = (   0.0000000  -0.1250000   0.3750000), wk =   0.0468750
        k(   13) = (   0.0000000  -0.2500000   0.5000000), wk =   0.0468750
        k(   14) = (   0.0000000   0.6250000  -0.3750000), wk =   0.0234375
        k(   15) = (  -0.1250000  -0.1250000   0.5000000), wk =   0.0468750
        k(   16) = (  -0.1250000   0.7500000  -0.3750000), wk =   0.0937500
        k(   17) = (  -0.2500000   0.2500000   0.2500000), wk =   0.0156250
        k(   18) = (  -0.2500000   0.7500000  -0.2500000), wk =   0.0156250
        k(   19) = (   0.6250000  -0.6250000   0.2500000), wk =   0.0468750
        k(   20) = (   0.5000000  -0.5000000   0.2500000), wk =   0.0234375
        k(   21) = (   0.5000000  -0.6250000   0.3750000), wk =   0.0468750
        k(   22) = (   0.0000000   0.0000000   0.5000000), wk =   0.0117188
        k(   23) = (   0.0000000  -0.1250000   0.6250000), wk =   0.0468750
        k(   24) = (   0.0000000   0.7500000  -0.2500000), wk =   0.0234375
        k(   25) = (  -0.1250000   0.8750000  -0.2500000), wk =   0.0468750
        k(   26) = (   0.5000000  -0.5000000   0.5000000), wk =   0.0039062
        k(   27) = (   0.0000000   0.0000000   0.7500000), wk =   0.0117188
        k(   28) = (   0.0000000   0.8750000  -0.1250000), wk =   0.0234375
        k(   29) = (   0.0000000   0.0000000  -1.0000000), wk =   0.0019531

     Dense  grid:     6363 G-vectors     FFT dimensions: (  25,  25,  25)

     Smooth grid:     2243 G-vectors     FFT dimensions: (  18,  18,  18)

     Estimated max dynamical RAM per process >      28.70 MB

     Check: negative core charge=   -0.000669
     Generating pointlists ...
     new r_m :   0.3572 (alat units)  2.2935 (a.u.) for type    1

     Initial potential from superposition of free atoms

     starting charge      15.9996, renormalised to      16.0000
     Starting wfcs are   13 randomized atomic wfcs
     Checking if some PAW data can be deallocated... 

     total cpu time spent up to now is        1.4 secs

     Self-consistent Calculation

     iteration #  1     ecut=    25.00 Ry     beta= 0.70
     Davidson diagonalization with overlap
     ethr =  1.00E-02,  avg # of iterations =  3.2

     negative rho (up, down):  0.000E+00 8.986E-04

     total cpu time spent up to now is        2.5 secs

     total energy              =    -328.44620433 Ry
     estimated scf accuracy    <       0.99778357 Ry

     total magnetization       =     3.95 Bohr mag/cell
     absolute magnetization    =     4.06 Bohr mag/cell

     iteration #  2     ecut=    25.00 Ry     beta= 0.70
     Davidson diagonalization with overlap
     ethr =  6.24E-03,  avg # of iterations =  1.8

     negative rho (up, down):  0.000E+00 1.055E-03

     total cpu time spent up to now is        3.6 secs

     total energy              =    -328.43708744 Ry
     estimated scf accuracy    <       1.14225429 Ry

     total magnetization       =     2.69 Bohr mag/cell
     absolute magnetization    =     2.79 Bohr mag/cell

     iteration #  3     ecut=    25.00 Ry     beta= 0.70
     Davidson diagonalization with overlap
     ethr =  6.24E-03,  avg # of iterations =  2.0

     negative rho (up, down):  0.000E+00 7.572E-04

     total cpu time spent up to now is        4.6 secs

     total energy              =    -328.68532749 Ry
     estimated scf accuracy    <       0.17782672 Ry

     total magnetization       =     3.27 Bohr mag/cell
     absolute magnetization    =     3.42 Bohr mag/cell

     iteration #  4     ecut=    25.00 Ry     beta= 0.70
     Davidson diagonalization with overlap
     ethr =  1.11E-03,  avg # of iterations =  1.7

     negative rho (up, down):  0.000E+00 6.400E-04

     total cpu time spent up to now is        5.7 secs

     total energy              =    -328.71942174 Ry
     estimated scf accuracy    <       0.00110249 Ry

     total magnetization       =     2.79 Bohr mag/cell
     absolute magnetization    =     2.99 Bohr mag/cell

     iteration #  5     ecut=    25.00 Ry     beta= 0.70
     Davidson diagonalization with overlap
     ethr =  6.89E-06,  avg # of iterations =  3.8

     negative rho (up, down):  0.000E+00 7.021E-04

     total cpu time spent up to now is        6.8 secs

     total energy              =    -328.72157679 Ry
     estimated scf accuracy    <       0.00099427 Ry

     total magnetization       =     2.79 Bohr mag/cell
     absolute magnetization    =     2.95 Bohr mag/cell

     iteration #  6     ecut=    25.00 Ry     beta= 0.70
     Davidson diagonalization with overlap
     ethr =  6.21E-06,  avg # of iterations =  2.2

     negative rho (up, down):  0.000E+00 6.730E-04

     total cpu time spent up to now is        7.9 secs

     total energy              =    -328.72426213 Ry
     estimated scf accuracy    <       0.00035916 Ry

     total magnetization       =     2.79 Bohr mag/cell
     absolute magnetization    =     2.93 Bohr mag/cell

     iteration #  7     ecut=    25.00 Ry     beta= 0.70
     Davidson diagonalization with overlap
     ethr =  2.24E-06,  avg # of iterations =  2.1

     negative rho (up, down):  0.000E+00 6.473E-04

     total cpu time spent up to now is        9.0 secs

     total energy              =    -328.72412984 Ry
     estimated scf accuracy    <       0.00005977 Ry

     total magnetization       =     2.79 Bohr mag/cell
     absolute magnetization    =     2.90 Bohr mag/cell

     iteration #  8     ecut=    25.00 Ry     beta= 0.70
     Davidson diagonalization with overlap
     ethr =  3.74E-07,  avg # of iterations =  2.4

     negative rho (up, down):  0.000E+00 6.909E-04

     total cpu time spent up to now is       10.1 secs

     total energy              =    -328.72619464 Ry
     estimated scf accuracy    <       0.00006632 Ry

     total magnetization       =     2.79 Bohr mag/cell
     absolute magnetization    =     2.88 Bohr mag/cell

     iteration #  9     ecut=    25.00 Ry     beta= 0.70
     Davidson diagonalization with overlap
     ethr =  3.74E-07,  avg # of iterations =  2.1

     negative rho (up, down):  0.000E+00 6.885E-04

     total cpu time spent up to now is       11.2 secs

     total energy              =    -328.72640866 Ry
     estimated scf accuracy    <       0.00046863 Ry

     total magnetization       =     2.79 Bohr mag/cell
     absolute magnetization    =     2.88 Bohr mag/cell

     iteration # 10     ecut=    25.00 Ry     beta= 0.70
     Davidson diagonalization with overlap
     ethr =  3.74E-07,  avg # of iterations =  1.6

     negative rho (up, down):  0.000E+00 6.682E-04

     total cpu time spent up to now is       12.3 secs

     total energy              =    -328.72668575 Ry
     estimated scf accuracy    <       0.00032490 Ry

     total magnetization       =     2.79 Bohr mag/cell
     absolute magnetization    =     2.88 Bohr mag/cell

     iteration # 11     ecut=    25.00 Ry     beta= 0.70
     Davidson diagonalization with overlap
     ethr =  3.74E-07,  avg # of iterations =  2.2

     negative rho (up, down):  0.000E+00 6.481E-04

     total cpu time spent up to now is       13.5 secs

     total energy              =    -328.72672955 Ry
     estimated scf accuracy    <       0.00000940 Ry

     total magnetization       =     2.79 Bohr mag/cell
     absolute magnetization    =     2.87 Bohr mag/cell

     iteration # 12     ecut=    25.00 Ry     beta= 0.70
     Davidson diagonalization with overlap
     ethr =  5.87E-08,  avg # of iterations =  2.2

     negative rho (up, down):  0.000E+00 6.496E-04

     total cpu time spent up to now is       14.6 secs

     total energy              =    -328.72680276 Ry
     estimated scf accuracy    <       0.00001636 Ry

     total magnetization       =     2.79 Bohr mag/cell
     absolute magnetization    =     2.86 Bohr mag/cell

     iteration # 13     ecut=    25.00 Ry     beta= 0.70
     Davidson diagonalization with overlap
     ethr =  5.87E-08,  avg # of iterations =  1.5

     negative rho (up, down):  0.000E+00 6.554E-04

     total cpu time spent up to now is       15.6 secs

     total energy              =    -328.72681997 Ry
     estimated scf accuracy    <       0.00001038 Ry

     total magnetization       =     2.79 Bohr mag/cell
     absolute magnetization    =     2.86 Bohr mag/cell

     iteration # 14     ecut=    25.00 Ry     beta= 0.70
     Davidson diagonalization with overlap
     ethr =  5.87E-08,  avg # of iterations =  1.9

     negative rho (up, down):  0.000E+00 6.650E-04

     total cpu time spent up to now is       16.7 secs

     total energy              =    -328.72676938 Ry
     estimated scf accuracy    <       0.00000211 Ry

     total magnetization       =     2.79 Bohr mag/cell
     absolute magnetization    =     2.87 Bohr mag/cell

     iteration # 15     ecut=    25.00 Ry     beta= 0.70
     Davidson diagonalization with overlap
     ethr =  1.32E-08,  avg # of iterations =  2.3

     negative rho (up, down):  0.000E+00 6.611E-04

     total cpu time spent up to now is       17.8 secs

     total energy              =    -328.72680615 Ry
     estimated scf accuracy    <       0.00002358 Ry

     total magnetization       =     2.79 Bohr mag/cell
     absolute magnetization    =     2.87 Bohr mag/cell

     iteration # 16     ecut=    25.00 Ry     beta= 0.70
     Davidson diagonalization with overlap
     ethr =  1.32E-08,  avg # of iterations =  2.0

     negative rho (up, down):  0.000E+00 6.587E-04

     total cpu time spent up to now is       18.9 secs

     total energy              =    -328.72681779 Ry
     estimated scf accuracy    <       0.00000823 Ry

     total magnetization       =     2.79 Bohr mag/cell
     absolute magnetization    =     2.87 Bohr mag/cell

     iteration # 17     ecut=    25.00 Ry     beta= 0.70
     Davidson diagonalization with overlap
     ethr =  1.32E-08,  avg # of iterations =  1.7

     negative rho (up, down):  0.000E+00 6.587E-04

     total cpu time spent up to now is       19.9 secs

     total energy              =    -328.72681721 Ry
     estimated scf accuracy    <       0.00000142 Ry

     total magnetization       =     2.79 Bohr mag/cell
     absolute magnetization    =     2.87 Bohr mag/cell

     iteration # 18     ecut=    25.00 Ry     beta= 0.70
     Davidson diagonalization with overlap
     ethr =  8.90E-09,  avg # of iterations =  1.0

     negative rho (up, down):  0.000E+00 6.580E-04

     total cpu time spent up to now is       20.9 secs

     total energy              =    -328.72681839 Ry
     estimated scf accuracy    <       0.00000151 Ry

     total magnetization       =     2.79 Bohr mag/cell
     absolute magnetization    =     2.87 Bohr mag/cell

     iteration # 19     ecut=    25.00 Ry     beta= 0.70
     Davidson diagonalization with overlap
     ethr =  8.90E-09,  avg # of iterations =  1.1

     negative rho (up, down):  0.000E+00 6.546E-04

     total cpu time spent up to now is       22.0 secs

     total energy              =    -328.72682242 Ry
     estimated scf accuracy    <       0.00000224 Ry

     total magnetization       =     2.79 Bohr mag/cell
     absolute magnetization    =     2.87 Bohr mag/cell

     iteration # 20     ecut=    25.00 Ry     beta= 0.70
     Davidson diagonalization with overlap
     ethr =  8.90E-09,  avg # of iterations =  1.7

     negative rho (up, down):  0.000E+00 6.547E-04

     Magnetic moment per site  (integrated on atomic sphere of radius R)
     atom   1 (R=0.357)  charge= 14.9248  magn=  2.8052

     total cpu time spent up to now is       23.0 secs

     End of self-consistent calculation

 ------ SPIN UP ------------


          k = 0.0000 0.0000 0.0000 (   321 PWs)   bands (ev):

   -79.0272 -44.2938 -44.2938 -44.2938   3.5631   7.2044   7.2044   7.6056
     7.6056   7.6056  28.6785  28.6785

          k = 0.0000-0.1250 0.1250 (   285 PWs)   bands (ev):

   -78.9198 -44.0974 -44.0689 -44.0688   4.1485   7.1540   7.2250   7.5434
     7.6367   7.7709  25.3406  27.5292

          k = 0.0000-0.2500 0.2500 (   279 PWs)   bands (ev):

   -78.9073 -44.0881 -44.0719 -44.0678   5.3916   7.0537   7.2422   7.3751
     7.8150   8.1728  20.7751  25.7260

          k = 0.0000-0.3750 0.3750 (   285 PWs)   bands (ev):

   -78.9315 -44.1572 -44.1288 -44.1082   6.0775   7.2115   7.2549   7.4767
     8.5992   8.8978  16.2486  24.4086

          k = 0.0000 0.5000-0.5000 (   276 PWs)   bands (ev):

   -78.9061 -44.1100 -44.0890 -44.0756   6.0746   7.1474   7.2714   7.6312
     8.7928  11.1287  13.1464  23.9655

          k =-0.1250-0.1250 0.2500 (   282 PWs)   bands (ev):

   -78.9155 -44.0899 -44.0896 -44.0777   5.0313   7.0136   7.2340   7.5102
     7.6202   8.1108  22.9777  23.8492

          k =-0.1250-0.2500 0.3750 (   280 PWs)   bands (ev):

   -78.9123 -44.1167 -44.0885 -44.0763   6.1613   6.9421   7.3798   7.4282
     7.8481   8.8165  18.7445  21.9146

          k =-0.1250 0.6250-0.5000 (   277 PWs)   bands (ev):

   -78.9054 -44.1396 -44.0708 -44.0606   6.2504   7.1065   7.2358   7.6408
     8.4580  10.7334  14.5689  21.0997

          k =-0.2500 0.7500-0.5000 (   284 PWs)   bands (ev):

   -78.9283 -44.1386 -44.1287 -44.1251   6.6631   6.7024   7.2858   7.8048
     7.9834  10.5589  17.4319  17.4913

          k =-0.2500 0.6250-0.3750 (   282 PWs)   bands (ev):

   -78.9214 -44.1368 -44.1250 -44.1015   6.5844   6.9390   7.0848   7.8609
     8.2003  13.2283  13.9051  17.0081

          k = 0.0000 0.0000 0.2500 (   289 PWs)   bands (ev):

   -78.9327 -44.1160 -44.1160 -44.1046   4.5853   7.0235   7.3054   7.6419
     7.6419   7.7684  24.7999  26.0530

          k = 0.0000-0.1250 0.3750 (   277 PWs)   bands (ev):

   -78.8998 -44.0872 -44.0626 -44.0457   5.7335   6.8226   7.4928   7.5379
     7.8425   8.1412  21.0950  24.3005

          k = 0.0000-0.2500 0.5000 (   281 PWs)   bands (ev):

   -78.9188 -44.1334 -44.1126 -44.0917   6.2125   6.8484   7.3917   7.6384
     8.5807   9.3862  16.6494  23.0375

          k = 0.0000 0.6250-0.3750 (   284 PWs)   bands (ev):

   -78.9324 -44.1775 -44.1528 -44.1025   6.1624   6.9249   7.3320   7.6616
     8.7754  11.8246  13.3321  22.5808

          k =-0.1250-0.1250 0.5000 (   283 PWs)   bands (ev):

   -78.9239 -44.1849 -44.1055 -44.0838   6.3573   6.5745   7.4932   7.8557
     8.1735   9.1080  19.3629  19.6937

          k =-0.1250 0.7500-0.3750 (   279 PWs)   bands (ev):

   -78.9127 -44.1627 -44.1129 -44.0668   6.3272   6.6242   7.3824   7.9382
     8.5521  11.6477  15.3175  18.6867

          k =-0.2500 0.2500 0.2500 (   267 PWs)   bands (ev):

   -78.8675 -44.0276 -44.0051 -44.0051   6.1943   7.0135   7.0135   7.5472
     7.5472   8.8359  21.2766  21.2766

          k =-0.2500 0.7500-0.2500 (   285 PWs)   bands (ev):

   -78.9349 -44.1665 -44.1458 -44.1458   6.4529   6.4529   7.3008   8.3310
     8.3310  14.6773  14.6773  15.0231

          k = 0.6250-0.6250 0.2500 (   281 PWs)   bands (ev):

   -78.9165 -44.1356 -44.1015 -44.0853   6.6358   7.0637   7.3959   7.4340
     7.7120  10.2913  17.0651  20.1681

          k = 0.5000-0.5000 0.2500 (   282 PWs)   bands (ev):

   -78.9187 -44.1394 -44.1106 -44.0958   6.5458   7.1482   7.2737   7.6013
     8.0253  12.6916  13.6165  19.7893

          k = 0.5000-0.6250 0.3750 (   282 PWs)   bands (ev):

   -78.9172 -44.1381 -44.1028 -44.0950   6.9646   6.9920   7.2793   7.6275
     7.6866  12.7395  16.1642  16.2147

          k = 0.0000 0.0000 0.5000 (   277 PWs)   bands (ev):

   -78.9008 -44.1711 -44.0391 -44.0391   6.2378   6.5458   7.8636   7.8636
     8.1478   8.4402  21.7557  22.1711

          k = 0.0000-0.1250 0.6250 (   274 PWs)   bands (ev):

   -78.8933 -44.1553 -44.0561 -44.0397   6.2528   6.3600   7.8676   7.9703
     8.5277  10.6175  17.8553  20.7511

          k = 0.0000 0.7500-0.2500 (   270 PWs)   bands (ev):

   -78.8840 -44.1048 -44.0979 -44.0084   6.1447   6.3551   7.8411   8.0014
     8.7393  13.5641  14.1837  20.2526

          k =-0.1250 0.8750-0.2500 (   274 PWs)   bands (ev):

   -78.8963 -44.1206 -44.0861 -44.0703   6.1315   6.1823   7.8834   8.3578
     8.6052  13.3426  16.8538  16.9484

          k = 0.5000-0.5000 0.5000 (   276 PWs)   bands (ev):

   -78.8978 -44.0793 -44.0793 -44.0793   7.2854   7.2854   7.3453   7.3453
     7.3453  15.6889  15.8166  15.8166

          k = 0.0000 0.0000 0.7500 (   265 PWs)   bands (ev):

   -78.8711 -44.0609 -44.0467 -44.0467   6.0240   6.0590   8.3578   8.3578
     8.5210  12.8440  19.1591  19.1591

          k = 0.0000 0.8750-0.1250 (   272 PWs)   bands (ev):

   -78.8919 -44.1149 -44.0837 -44.0739   5.9159   5.9400   8.4071   8.4855
     8.6932  15.8150  15.9505  18.5420

          k = 0.0000 0.0000-1.0000 (   266 PWs)   bands (ev):

   -78.8775 -44.0711 -44.0711 -44.0711   5.7989   5.7989   8.6772   8.6772
     8.6772  17.9282  17.9282  17.9282

 ------ SPIN DOWN ----------


          k = 0.0000 0.0000 0.0000 (   321 PWs)   bands (ev):

   -75.8892 -41.2304 -41.2304 -41.2304   3.9600   9.2965   9.2965   9.2965
    11.6106  11.6106  28.6487  28.6487

          k = 0.0000-0.1250 0.1250 (   285 PWs)   bands (ev):

   -75.7867 -41.0461 -41.0174 -41.0162   4.5339   9.2188   9.3005   9.4791
    11.5145  11.6255  25.7244  27.7717

          k = 0.0000-0.2500 0.2500 (   279 PWs)   bands (ev):

   -75.7733 -41.0335 -41.0237 -41.0224   5.8583   9.0148   9.3245   9.9277
    11.3287  11.6581  21.3876  26.0257

          k = 0.0000-0.3750 0.3750 (   285 PWs)   bands (ev):

   -75.7942 -41.1120 -41.0748 -41.0577   7.3621   8.8179   9.8669  10.4119
    11.2351  11.7033  17.0931  24.6424

          k = 0.0000 0.5000-0.5000 (   276 PWs)   bands (ev):

   -75.7686 -41.0684 -41.0412 -41.0236   7.8245   8.7402  10.6339  11.1683
    11.2944  11.7325  14.5301  24.1584

          k =-0.1250-0.1250 0.2500 (   282 PWs)   bands (ev):

   -75.7816 -41.0378 -41.0374 -41.0302   5.4394   9.1290   9.2034   9.8355
    11.3539  11.6621  23.4950  24.2894

          k =-0.1250-0.2500 0.3750 (   280 PWs)   bands (ev):

   -75.7765 -41.0691 -41.0415 -41.0245   6.9718   8.9408   9.2398  10.4368
    11.2173  11.7382  19.4342  22.4209

          k =-0.1250 0.6250-0.5000 (   277 PWs)   bands (ev):

   -75.7683 -41.0957 -41.0203 -41.0136   7.9620   8.7971   9.8653  11.1301
    11.2550  12.1089  15.5606  21.6011

          k =-0.2500 0.7500-0.5000 (   284 PWs)   bands (ev):

   -75.7901 -41.0921 -41.0769 -41.0761   8.1430   9.0124   9.1142  11.1594
    11.1650  12.2421  18.1534  18.1902

          k =-0.2500 0.6250-0.3750 (   282 PWs)   bands (ev):

   -75.7827 -41.0916 -41.0729 -41.0547   8.4168   8.9551   9.4239  11.1915
    11.3028  14.0874  14.9894  17.7163

          k = 0.0000 0.0000 0.2500 (   289 PWs)   bands (ev):

   -75.7973 -41.0629 -41.0629 -41.0531   4.9848   9.3186   9.3186   9.4791
    11.2644  11.7318  25.3429  26.3535

          k = 0.0000-0.1250 0.3750 (   277 PWs)   bands (ev):

   -75.7650 -41.0400 -41.0132 -40.9978   6.3021   9.1911   9.3764   9.8918
    10.9598  11.8079  21.7436  24.6792

          k = 0.0000-0.2500 0.5000 (   281 PWs)   bands (ev):

   -75.7813 -41.0840 -41.0654 -41.0432   7.7525   9.0165   9.7707  10.3901
    10.8613  12.0125  17.4939  23.4408

          k = 0.0000 0.6250-0.3750 (   284 PWs)   bands (ev):

   -75.7934 -41.1216 -41.1105 -41.0533   8.1563   8.9452  10.3877  10.6144
    10.8896  12.9613  14.6523  22.9825

          k =-0.1250-0.1250 0.5000 (   283 PWs)   bands (ev):

   -75.7873 -41.1330 -41.0557 -41.0382   7.6785   9.3037   9.3095  10.3442
    10.6774  12.0033  20.1697  20.2770

          k =-0.1250 0.7500-0.3750 (   279 PWs)   bands (ev):

   -75.7752 -41.1102 -41.0697 -41.0209   8.5245   9.1720   9.6673  10.6836
    10.7374  13.1596  16.2658  19.3990

          k =-0.2500 0.2500 0.2500 (   267 PWs)   bands (ev):

   -75.7327 -40.9868 -40.9573 -40.9573   6.6848   8.9721   8.9721  10.4952
    11.5366  11.5366  21.7638  21.7638

          k =-0.2500 0.7500-0.2500 (   285 PWs)   bands (ev):

   -75.7951 -41.1117 -41.1003 -41.1003   8.8394   9.3750   9.3750  10.7363
    10.7363  15.7103  15.7103  15.9093

          k = 0.6250-0.6250 0.2500 (   281 PWs)   bands (ev):

   -75.7790 -41.0880 -41.0535 -41.0358   8.0085   8.7676   9.0429  11.3755
    11.6352  11.6834  17.7624  20.5971

          k = 0.5000-0.5000 0.2500 (   282 PWs)   bands (ev):

   -75.7807 -41.0949 -41.0603 -41.0464   8.2952   8.6931   9.4583  11.4123
    11.7417  13.2636  14.7535  20.1879

          k = 0.5000-0.6250 0.3750 (   282 PWs)   bands (ev):

   -75.7788 -41.0906 -41.0556 -41.0461   8.5276   8.8463   8.9911  11.5804
    11.6730  13.6097  16.8359  16.8859

          k = 0.0000 0.0000 0.5000 (   277 PWs)   bands (ev):

   -75.7659 -41.1242 -40.9919 -40.9919   7.4798   9.5395   9.5395   9.9060
    10.3860  11.9665  22.5727  22.5727

          k = 0.0000-0.1250 0.6250 (   274 PWs)   bands (ev):

   -75.7571 -41.1087 -41.0118 -40.9945   8.6620   9.5473   9.6389  10.2214
    10.3300  12.6436  18.6527  21.1361

          k = 0.0000 0.7500-0.2500 (   270 PWs)   bands (ev):

   -75.7466 -41.0630 -41.0504 -40.9657   8.9511   9.5163   9.6639  10.3290
    10.5741  14.7338  15.2779  20.6195

          k =-0.1250 0.8750-0.2500 (   274 PWs)   bands (ev):

   -75.7587 -41.0743 -41.0426 -41.0259   9.2389   9.4182   9.6440  10.3041
    10.5048  14.5538  17.6578  17.7738

          k = 0.5000-0.5000 0.5000 (   276 PWs)   bands (ev):

   -75.7602 -41.0333 -41.0333 -41.0333   8.7987   8.7987   8.7987  11.7557
    11.7557  16.3513  16.3513  16.3513

          k = 0.0000 0.0000 0.7500 (   265 PWs)   bands (ev):

   -75.7353 -41.0192 -41.0042 -41.0042   9.1676   9.4867  10.1062  10.1062
    10.3280  14.1205  19.4948  19.4948

          k = 0.0000 0.8750-0.1250 (   272 PWs)   bands (ev):

   -75.7543 -41.0712 -41.0403 -41.0303   9.2466   9.2495  10.1772  10.2903
    10.5229  16.6879  16.7144  18.8439

          k = 0.0000 0.0000-1.0000 (   266 PWs)   bands (ev):

   -75.7413 -41.0292 -41.0292 -41.0292   9.1177   9.1177  10.5048  10.5048
    10.5048  18.1822  18.1822  18.1822

     the Fermi energy is     9.5839 ev

!    total energy              =    -328.72682324 Ry

     total all-electron energy =     -2545.023359 Ry
     estimated scf accuracy    <          8.5E-09 Ry
     smearing contrib. (-TS)   =       0.00026105 Ry
     internal energy E=F+TS    =    -328.72708429 Ry

     The total energy is F=E-TS. E is the sum of the following terms:
     one-electron contribution =    -157.05854419 Ry
     hartree contribution      =      84.11053717 Ry
     xc contribution           =     -34.63733330 Ry
     ewald contribution        =    -145.11585099 Ry
     one-center paw contrib.   =     -76.02589298 Ry

     total magnetization       =     2.79 Bohr mag/cell
     absolute magnetization    =     2.86 Bohr mag/cell

     convergence has been achieved in  20 iterations

     Writing all to output data dir ./fe.save/

     init_run     :      1.26s CPU      1.27s WALL (       1 calls)
     electrons    :     21.08s CPU     21.64s WALL (       1 calls)

     Called by init_run:
     wfcinit      :      0.11s CPU      0.11s WALL (       1 calls)
     potinit      :      0.68s CPU      0.69s WALL (       1 calls)
     hinit0       :      0.45s CPU      0.45s WALL (       1 calls)

     Called by electrons:
     c_bands      :      5.29s CPU      5.60s WALL (      20 calls)
     sum_band     :      1.78s CPU      1.85s WALL (      20 calls)
     v_of_rho     :      0.22s CPU      0.24s WALL (      21 calls)
     newd         :      0.25s CPU      0.27s WALL (      21 calls)
     PAW_pot      :     14.13s CPU     14.27s WALL (      21 calls)
     mix_rho      :      0.03s CPU      0.03s WALL (      20 calls)

     Called by c_bands:
     init_us_2    :      0.21s CPU      0.21s WALL (    2378 calls)
     init_us_2:cp :      0.20s CPU      0.21s WALL (    2378 calls)
     cegterg      :      4.44s CPU      4.73s WALL (    1160 calls)

     Called by *egterg:
     cdiaghg      :      0.32s CPU      0.33s WALL (    3515 calls)
     h_psi        :      3.68s CPU      3.81s WALL (    3573 calls)
     s_psi        :      0.05s CPU      0.06s WALL (    3573 calls)
     g_psi        :      0.05s CPU      0.05s WALL (    2355 calls)

     Called by h_psi:
     h_psi:calbec :      0.06s CPU      0.12s WALL (    3573 calls)
     vloc_psi     :      3.54s CPU      3.59s WALL (    3573 calls)
     add_vuspsi   :      0.06s CPU      0.07s WALL (    3573 calls)

     General routines
     calbec       :      0.08s CPU      0.17s WALL (    4733 calls)
     fft          :      0.04s CPU      0.04s WALL (     519 calls)
     ffts         :      0.01s CPU      0.01s WALL (      82 calls)
     fftw         :      2.45s CPU      2.49s WALL (   81328 calls)
     interpolate  :      0.01s CPU      0.01s WALL (      42 calls)

     Parallel routines

     PWSCF        :     22.44s CPU     23.04s WALL


   This run was terminated on:  20:30:15  19Mar2022            

=------------------------------------------------------------------------------=
   JOB DONE.
=------------------------------------------------------------------------------=
