
     Program PWSCF v.7.0 starts on 19Mar2022 at 15:43:46 

     This program is part of the open-source Quantum ESPRESSO suite
     for quantum simulation of materials; please cite
         "P. Giannozzi et al., J. Phys.:Condens. Matter 21 395502 (2009);
         "P. Giannozzi et al., J. Phys.:Condens. Matter 29 465901 (2017);
         "P. Giannozzi et al., J. Chem. Phys. 152 154105 (2020);
          URL http://www.quantum-espresso.org", 
     in publications or presentations arising from this work. More details at
     http://www.quantum-espresso.org/quote

     Parallel version (MPI), running on     1 processors

     MPI processes distributed on     1 nodes
     0 MiB available memory on the printing compute node when the environment starts

     Reading input from fe.vc_relax.bcc.in
     Message from routine read_cards :
     DEPRECATED: no units specified in ATOMIC_POSITIONS card
     Message from routine read_cards :
     ATOMIC_POSITIONS: units set to alat

     Current dimensions of program PWSCF are:
     Max number of different atomic species (ntypx) = 10
     Max number of k-points (npk) =  40000
     Max angular momentum in pseudopotentials (lmaxx) =  4
     file Fe.pbe-spn-kjpaw_psl.0.2.1.UPF: wavefunction(s)  3D renormalized

     Subspace diagonalization in iterative solution of the eigenvalue problem:
     a serial algorithm will be used


     G-vector sticks info
     --------------------
     sticks:   dense  smooth     PW     G-vecs:    dense   smooth      PW
     Sum        3807    1267    375               148733    28675    4537

     Using Slab Decomposition



     bravais-lattice index     =            3
     lattice parameter (alat)  =       9.7000  a.u.
     unit-cell volume          =     456.3365 (a.u.)^3
     number of atoms/cell      =            1
     number of atomic types    =            1
     number of electrons       =        16.00
     number of Kohn-Sham states=           12
     kinetic-energy cutoff     =      60.0000  Ry
     charge density cutoff     =     720.0000  Ry
     scf convergence threshold =      1.0E-08
     mixing beta               =       0.7000
     number of iterations used =            8  plain     mixing
     energy convergence thresh.=      1.0E-06
     force convergence thresh. =      1.0E-06
     press convergence thresh. =      5.0E-01
     Exchange-correlation= SLA  PW   PBX  PBC
                           (   1   4   3   4   0   0   0)
     nstep                     =          100


     celldm(1)=   9.700000  celldm(2)=   0.000000  celldm(3)=   0.000000
     celldm(4)=   0.000000  celldm(5)=   0.000000  celldm(6)=   0.000000

     crystal axes: (cart. coord. in units of alat)
               a(1) = (   0.500000   0.500000   0.500000 )  
               a(2) = (  -0.500000   0.500000   0.500000 )  
               a(3) = (  -0.500000  -0.500000   0.500000 )  

     reciprocal axes: (cart. coord. in units 2 pi/alat)
               b(1) = (  1.000000  0.000000  1.000000 )  
               b(2) = ( -1.000000  1.000000  0.000000 )  
               b(3) = (  0.000000 -1.000000  1.000000 )  


     PseudoPot. # 1 for Fe read from file:
     ./Fe.pbe-spn-kjpaw_psl.0.2.1.UPF
     MD5 check sum: e86618425769142926afa95317d90200
     Pseudo is Projector augmented-wave + core cor, Zval = 16.0
     Generated using "atomic" code by A. Dal Corso  v.5.0.99 svn rev. 10869
     Shape of augmentation charge: PSQ
     Using radial grid of 1191 points,  6 beta functions with: 
                l(1) =   0
                l(2) =   0
                l(3) =   1
                l(4) =   1
                l(5) =   2
                l(6) =   2
     Q(r) pseudized with 0 coefficients 


     atomic species   valence    mass     pseudopotential
        Fe            16.00    55.84500     Fe( 1.00)

     48 Sym. Ops., with inversion, found



   Cartesian axes

     site n.     atom                  positions (alat units)
         1           Fe  tau(   1) = (   0.0000000   0.0000000   0.0000000  )

     number of k points=     8  Methfessel-Paxton smearing, width (Ry)=  0.0600
                       cart. coord. in units 2pi/alat
        k(    1) = (   0.0000000   0.0000000   0.0000000), wk =   0.0312500
        k(    2) = (   0.0000000  -0.2500000   0.2500000), wk =   0.3750000
        k(    3) = (   0.0000000   0.5000000  -0.5000000), wk =   0.1875000
        k(    4) = (  -0.2500000   0.7500000  -0.5000000), wk =   0.7500000
        k(    5) = (   0.0000000   0.0000000   0.5000000), wk =   0.1875000
        k(    6) = (   0.0000000   0.7500000  -0.2500000), wk =   0.3750000
        k(    7) = (   0.5000000  -0.5000000   0.5000000), wk =   0.0625000
        k(    8) = (   0.0000000   0.0000000  -1.0000000), wk =   0.0312500

     Dense  grid:   148733 G-vectors     FFT dimensions: (  72,  72,  72)

     Smooth grid:    28675 G-vectors     FFT dimensions: (  45,  45,  45)

     Estimated max dynamical RAM per process >     553.91 MB

     Check: negative core charge=   -0.000011

     Initial potential from superposition of free atoms

     starting charge      15.9996, renormalised to      16.0000
     Starting wfcs are   13 randomized atomic wfcs
     Checking if some PAW data can be deallocated... 

     total cpu time spent up to now is        9.0 secs

     Self-consistent Calculation

     iteration #  1     ecut=    60.00 Ry     beta= 0.70
     Davidson diagonalization with overlap
     ethr =  1.00E-02,  avg # of iterations =  2.0

     total cpu time spent up to now is       10.8 secs

     total energy              =    -327.85849791 Ry
     estimated scf accuracy    <       1.34877736 Ry

     iteration #  2     ecut=    60.00 Ry     beta= 0.70
     Davidson diagonalization with overlap
     ethr =  8.43E-03,  avg # of iterations =  5.4

     total cpu time spent up to now is       12.9 secs

     total energy              =    -327.03769097 Ry
     estimated scf accuracy    <      24.08950996 Ry

     iteration #  3     ecut=    60.00 Ry     beta= 0.70
     Davidson diagonalization with overlap
     ethr =  8.43E-03,  avg # of iterations =  4.0

     total cpu time spent up to now is       14.8 secs

     total energy              =    -328.77434841 Ry
     estimated scf accuracy    <       0.10107598 Ry

     iteration #  4     ecut=    60.00 Ry     beta= 0.70
     Davidson diagonalization with overlap
     ethr =  6.32E-04,  avg # of iterations =  3.2

     total cpu time spent up to now is       16.7 secs

     total energy              =    -328.79782818 Ry
     estimated scf accuracy    <       0.00411198 Ry

     iteration #  5     ecut=    60.00 Ry     beta= 0.70
     Davidson diagonalization with overlap
     ethr =  2.57E-05,  avg # of iterations =  4.1

     total cpu time spent up to now is       18.7 secs

     total energy              =    -328.80051967 Ry
     estimated scf accuracy    <       0.00366847 Ry

     iteration #  6     ecut=    60.00 Ry     beta= 0.70
     Davidson diagonalization with overlap
     ethr =  2.29E-05,  avg # of iterations =  1.1

     total cpu time spent up to now is       20.5 secs

     total energy              =    -328.80076188 Ry
     estimated scf accuracy    <       0.00017878 Ry

     iteration #  7     ecut=    60.00 Ry     beta= 0.70
     Davidson diagonalization with overlap
     ethr =  1.12E-06,  avg # of iterations =  4.0

     total cpu time spent up to now is       22.4 secs

     total energy              =    -328.80080969 Ry
     estimated scf accuracy    <       0.00012183 Ry

     iteration #  8     ecut=    60.00 Ry     beta= 0.70
     Davidson diagonalization with overlap
     ethr =  7.61E-07,  avg # of iterations =  1.4

     total cpu time spent up to now is       24.2 secs

     total energy              =    -328.80081568 Ry
     estimated scf accuracy    <       0.00002507 Ry

     iteration #  9     ecut=    60.00 Ry     beta= 0.70
     Davidson diagonalization with overlap
     ethr =  1.57E-07,  avg # of iterations =  2.8

     total cpu time spent up to now is       26.0 secs

     total energy              =    -328.80081917 Ry
     estimated scf accuracy    <       0.00000194 Ry

     iteration # 10     ecut=    60.00 Ry     beta= 0.70
     Davidson diagonalization with overlap
     ethr =  1.21E-08,  avg # of iterations =  4.5

     total cpu time spent up to now is       28.0 secs

     total energy              =    -328.80082016 Ry
     estimated scf accuracy    <       0.00000004 Ry

     iteration # 11     ecut=    60.00 Ry     beta= 0.70
     Davidson diagonalization with overlap
     ethr =  2.53E-10,  avg # of iterations =  5.2

     total cpu time spent up to now is       30.0 secs

     total energy              =    -328.80082018 Ry
     estimated scf accuracy    <       0.00000045 Ry

     iteration # 12     ecut=    60.00 Ry     beta= 0.70
     Davidson diagonalization with overlap
     ethr =  2.53E-10,  avg # of iterations =  2.5

     total cpu time spent up to now is       31.8 secs

     End of self-consistent calculation

          k = 0.0000 0.0000 0.0000 (  3559 PWs)   bands (ev):

   -86.1527 -52.2889 -52.2889 -52.2889  -2.2102  -0.3684  -0.3684  -0.3684
    -0.2584  -0.2584   7.5188   7.5188

          k = 0.0000-0.2500 0.2500 (  3589 PWs)   bands (ev):

   -86.1528 -52.2891 -52.2890 -52.2890  -1.5427  -0.4000  -0.3536  -0.2811
    -0.2746  -0.2565   4.3284   6.3155

          k = 0.0000 0.5000-0.5000 (  3592 PWs)   bands (ev):

   -86.1529 -52.2891 -52.2891 -52.2890  -0.6862  -0.4315  -0.2725  -0.2534
    -0.1855   0.3704   1.4278   5.5654

          k =-0.2500 0.7500-0.5000 (  3586 PWs)   bands (ev):

   -86.1528 -52.2891 -52.2890 -52.2890  -0.6106  -0.3918  -0.3582  -0.2709
    -0.2498   0.0844   2.6590   3.7632

          k = 0.0000 0.0000 0.5000 (  3580 PWs)   bands (ev):

   -86.1528 -52.2891 -52.2890 -52.2890  -0.9109  -0.3596  -0.3228  -0.3228
    -0.2838  -0.2178   4.3984   5.0428

          k = 0.0000 0.7500-0.2500 (  3570 PWs)   bands (ev):

   -86.1528 -52.2890 -52.2890 -52.2890  -0.4585  -0.3883  -0.3263  -0.2977
    -0.1940   0.7099   2.2169   4.2945

          k = 0.5000-0.5000 0.5000 (  3604 PWs)   bands (ev):

   -86.1529 -52.2891 -52.2891 -52.2891  -0.3878  -0.3878  -0.3878  -0.2518
    -0.2518   0.5924   3.0846   3.0846

          k = 0.0000 0.0000-1.0000 (  3564 PWs)   bands (ev):

   -86.1528 -52.2890 -52.2890 -52.2890  -0.4759  -0.4759  -0.2026  -0.2026
    -0.2026   1.6859   3.5256   3.5256

     the Fermi energy is    -0.1192 ev

!    total energy              =    -328.80082020 Ry

     total all-electron energy =     -2545.097356 Ry
     estimated scf accuracy    <          8.2E-09 Ry
     smearing contrib. (-TS)   =      -0.06654560 Ry
     internal energy E=F+TS    =    -328.73427460 Ry

     The total energy is F=E-TS. E is the sum of the following terms:
     one-electron contribution =    -244.71638337 Ry
     hartree contribution      =     122.58760147 Ry
     xc contribution           =     -34.43620048 Ry
     ewald contribution        =     -96.04574877 Ry
     one-center paw contrib.   =     -76.12354346 Ry

     convergence has been achieved in  12 iterations

     Forces acting on atoms (cartesian axes, Ry/au):

     atom    1 type  1   force =     0.00000000    0.00000000    0.00000000

     Total force =     0.000000     Total SCF correction =     0.000000


     Computing stress (Cartesian axis) and pressure

          total   stress  (Ry/bohr**3)                   (kbar)     P=      -39.04
  -0.00026537   0.00000000  -0.00000000          -39.04        0.00       -0.00
   0.00000000  -0.00026537  -0.00000000            0.00      -39.04       -0.00
  -0.00000000  -0.00000000  -0.00026537           -0.00       -0.00      -39.04


     BFGS Geometry Optimization
     Energy error            =      0.0E+00 Ry
     Gradient error          =      0.0E+00 Ry/Bohr
     Cell gradient error     =      3.9E+01 kbar

     number of scf cycles    =   1
     number of bfgs steps    =   0

     enthalpy           new  =    -328.8008201997 Ry

     new trust radius        =       0.0283440624 bohr
ibrav =      3
 celldm(1) =      9.63564812
Input lattice vectors:
     0.49668289     0.49668289     0.49668289
    -0.49668289     0.49668289     0.49668289
    -0.49668289    -0.49668289     0.49668289
New lattice vectors in INITIAL alat:
     0.49668289     0.49668289     0.49668289
    -0.49668289     0.49668289     0.49668289
    -0.49668289    -0.49668289     0.49668289
New lattice vectors in NEW alat (for information only):
     0.50000000     0.50000000     0.50000000
    -0.50000000     0.50000000     0.50000000
    -0.50000000    -0.50000000     0.50000000
Discrepancy in bohr =     0.000000    0.000000    0.000000

Atomic positions rescaled with new alat:
Fe            0.0000000000        0.0000000000        0.0000000000
     new conv_thr            =       0.0000000100 Ry

     new unit-cell volume =    447.31432 a.u.^3 (    66.28514 Ang^3 )
     density =      1.39900 g/cm^3

CELL_PARAMETERS (alat=  9.70000000)
   0.496682893   0.496682893   0.496682893
  -0.496682893   0.496682893   0.496682893
  -0.496682893  -0.496682893   0.496682893

ATOMIC_POSITIONS (alat)
Fe            0.0000000000        0.0000000000        0.0000000000



     Writing config-only to output data dir ./fe.save/
     NEW-OLD atomic charge density approx. for the potential

     Check: negative core charge=   -0.000011
     extrapolated charge   15.67729, renormalised to   16.00000

     total cpu time spent up to now is       55.1 secs

     Self-consistent Calculation

     iteration #  1     ecut=    60.00 Ry     beta= 0.70
     Davidson diagonalization with overlap
     ethr =  1.00E-06,  avg # of iterations =  8.9

     total cpu time spent up to now is       57.9 secs

     total energy              =    -327.39113083 Ry
     estimated scf accuracy    <       1.48171859 Ry

     iteration #  2     ecut=    60.00 Ry     beta= 0.70
     Davidson diagonalization with overlap
     ethr =  9.26E-03,  avg # of iterations =  5.2

     total cpu time spent up to now is       60.0 secs

     total energy              =    -328.01833869 Ry
     estimated scf accuracy    <      28.16227532 Ry

     iteration #  3     ecut=    60.00 Ry     beta= 0.70
     Davidson diagonalization with overlap
     ethr =  9.26E-03,  avg # of iterations =  3.9

     total cpu time spent up to now is       62.0 secs

     total energy              =    -328.74262943 Ry
     estimated scf accuracy    <       2.86213946 Ry

     iteration #  4     ecut=    60.00 Ry     beta= 0.70
     Davidson diagonalization with overlap
     ethr =  9.26E-03,  avg # of iterations =  1.6

     total cpu time spent up to now is       63.8 secs

     total energy              =    -328.82977233 Ry
     estimated scf accuracy    <       0.67180367 Ry

     iteration #  5     ecut=    60.00 Ry     beta= 0.70
     Davidson diagonalization with overlap
     ethr =  4.20E-03,  avg # of iterations =  1.5

     total cpu time spent up to now is       65.5 secs

     total energy              =    -328.82757879 Ry
     estimated scf accuracy    <       0.64576719 Ry

     iteration #  6     ecut=    60.00 Ry     beta= 0.70
     Davidson diagonalization with overlap
     ethr =  4.04E-03,  avg # of iterations =  1.0

     total cpu time spent up to now is       67.2 secs

     total energy              =    -328.82820840 Ry
     estimated scf accuracy    <       0.44173567 Ry

     iteration #  7     ecut=    60.00 Ry     beta= 0.70
     Davidson diagonalization with overlap
     ethr =  2.76E-03,  avg # of iterations =  1.0

     total cpu time spent up to now is       69.0 secs

     total energy              =    -328.82682711 Ry
     estimated scf accuracy    <       0.38527662 Ry

     iteration #  8     ecut=    60.00 Ry     beta= 0.70
     Davidson diagonalization with overlap
     ethr =  2.41E-03,  avg # of iterations =  1.0

     total cpu time spent up to now is       70.8 secs

     total energy              =    -328.81524842 Ry
     estimated scf accuracy    <       0.33706404 Ry

     iteration #  9     ecut=    60.00 Ry     beta= 0.70
     Davidson diagonalization with overlap
     ethr =  2.11E-03,  avg # of iterations =  1.0

     total cpu time spent up to now is       72.5 secs

     total energy              =    -328.81488045 Ry
     estimated scf accuracy    <       0.22669909 Ry

     iteration # 10     ecut=    60.00 Ry     beta= 0.70
     Davidson diagonalization with overlap
     ethr =  1.42E-03,  avg # of iterations =  1.0

     negative rho (up, down):  2.949E-04 0.000E+00

     total cpu time spent up to now is       74.2 secs

     total energy              =    -328.87605619 Ry
     estimated scf accuracy    <       0.19866257 Ry

     iteration # 11     ecut=    60.00 Ry     beta= 0.70
     Davidson diagonalization with overlap
     ethr =  1.24E-03,  avg # of iterations =  1.9

     total cpu time spent up to now is       76.0 secs

     total energy              =    -328.72495238 Ry
     estimated scf accuracy    <       0.98063562 Ry

     iteration # 12     ecut=    60.00 Ry     beta= 0.70
     Davidson diagonalization with overlap
     ethr =  1.24E-03,  avg # of iterations =  2.2

     total cpu time spent up to now is       77.8 secs

     total energy              =    -328.79879179 Ry
     estimated scf accuracy    <       0.02654229 Ry

     iteration # 13     ecut=    60.00 Ry     beta= 0.70
     Davidson diagonalization with overlap
     ethr =  1.66E-04,  avg # of iterations =  1.1

     total cpu time spent up to now is       79.5 secs

     total energy              =    -328.78686482 Ry
     estimated scf accuracy    <       0.11667364 Ry

     iteration # 14     ecut=    60.00 Ry     beta= 0.70
     Davidson diagonalization with overlap
     ethr =  1.66E-04,  avg # of iterations =  2.2

     total cpu time spent up to now is       81.4 secs

     total energy              =    -328.80133685 Ry
     estimated scf accuracy    <       0.00788490 Ry

     iteration # 15     ecut=    60.00 Ry     beta= 0.70
     Davidson diagonalization with overlap
     ethr =  4.93E-05,  avg # of iterations =  1.9

     total cpu time spent up to now is       83.1 secs

     total energy              =    -328.80003527 Ry
     estimated scf accuracy    <       0.00722900 Ry

     iteration # 16     ecut=    60.00 Ry     beta= 0.70
     Davidson diagonalization with overlap
     ethr =  4.52E-05,  avg # of iterations =  1.0

     total cpu time spent up to now is       84.9 secs

     total energy              =    -328.79928659 Ry
     estimated scf accuracy    <       0.00354862 Ry

     iteration # 17     ecut=    60.00 Ry     beta= 0.70
     Davidson diagonalization with overlap
     ethr =  2.22E-05,  avg # of iterations =  1.0

     total cpu time spent up to now is       86.6 secs

     total energy              =    -328.79861318 Ry
     estimated scf accuracy    <       0.00133244 Ry

     iteration # 18     ecut=    60.00 Ry     beta= 0.70
     Davidson diagonalization with overlap
     ethr =  8.33E-06,  avg # of iterations =  2.8

     total cpu time spent up to now is       88.5 secs

     total energy              =    -328.80327069 Ry
     estimated scf accuracy    <       0.00047734 Ry

     iteration # 19     ecut=    60.00 Ry     beta= 0.70
     Davidson diagonalization with overlap
     ethr =  2.98E-06,  avg # of iterations =  1.1

     total cpu time spent up to now is       90.3 secs

     total energy              =    -328.80327249 Ry
     estimated scf accuracy    <       0.00009502 Ry

     iteration # 20     ecut=    60.00 Ry     beta= 0.70
     Davidson diagonalization with overlap
     ethr =  5.94E-07,  avg # of iterations =  1.9

     total cpu time spent up to now is       92.0 secs

     total energy              =    -328.80307104 Ry
     estimated scf accuracy    <       0.00008102 Ry

     iteration # 21     ecut=    60.00 Ry     beta= 0.70
     Davidson diagonalization with overlap
     ethr =  5.06E-07,  avg # of iterations =  1.1

     total cpu time spent up to now is       93.7 secs

     total energy              =    -328.80325739 Ry
     estimated scf accuracy    <       0.00040671 Ry

     iteration # 22     ecut=    60.00 Ry     beta= 0.70
     Davidson diagonalization with overlap
     ethr =  5.06E-07,  avg # of iterations =  2.0

     total cpu time spent up to now is       95.6 secs

     total energy              =    -328.80328787 Ry
     estimated scf accuracy    <       0.00001612 Ry

     iteration # 23     ecut=    60.00 Ry     beta= 0.70
     Davidson diagonalization with overlap
     ethr =  1.01E-07,  avg # of iterations =  2.0

     total cpu time spent up to now is       97.3 secs

     total energy              =    -328.80329093 Ry
     estimated scf accuracy    <       0.00000151 Ry

     iteration # 24     ecut=    60.00 Ry     beta= 0.70
     Davidson diagonalization with overlap
     ethr =  9.41E-09,  avg # of iterations =  2.0

     total cpu time spent up to now is       99.2 secs

     total energy              =    -328.80329211 Ry
     estimated scf accuracy    <       0.00000297 Ry

     iteration # 25     ecut=    60.00 Ry     beta= 0.70
     Davidson diagonalization with overlap
     ethr =  9.41E-09,  avg # of iterations =  1.0

     total cpu time spent up to now is      100.9 secs

     total energy              =    -328.80329230 Ry
     estimated scf accuracy    <       0.00000023 Ry

     iteration # 26     ecut=    60.00 Ry     beta= 0.70
     Davidson diagonalization with overlap
     ethr =  1.45E-09,  avg # of iterations =  2.1

     total cpu time spent up to now is      102.7 secs

     total energy              =    -328.80329236 Ry
     estimated scf accuracy    <       0.00000002 Ry

     iteration # 27     ecut=    60.00 Ry     beta= 0.70
     Davidson diagonalization with overlap
     ethr =  1.54E-10,  avg # of iterations =  3.6

     total cpu time spent up to now is      104.5 secs

     End of self-consistent calculation

          k = 0.0000 0.0000 0.0000 (  3559 PWs)   bands (ev):

   -86.0779 -52.2133 -52.2133 -52.2133  -2.1775  -0.2930  -0.2930  -0.2930
    -0.1790  -0.1790   7.7045   7.7045

          k = 0.0000-0.2517 0.2517 (  3589 PWs)   bands (ev):

   -86.0780 -52.2136 -52.2135 -52.2134  -1.4981  -0.3259  -0.2784  -0.2025
    -0.1958  -0.1769   4.4562   6.4710

          k = 0.0000 0.5033-0.5033 (  3592 PWs)   bands (ev):

   -86.0780 -52.2136 -52.2135 -52.2135  -0.6213  -0.3588  -0.1934  -0.1736
    -0.1033   0.4723   1.4839   5.7051

          k =-0.2517 0.7550-0.5033 (  3586 PWs)   bands (ev):

   -86.0780 -52.2136 -52.2135 -52.2135  -0.5447  -0.3185  -0.2839  -0.1919
    -0.1698   0.1727   2.7557   3.8617

          k = 0.0000 0.0000 0.5033 (  3580 PWs)   bands (ev):

   -86.0779 -52.2136 -52.2134 -52.2134  -0.8551  -0.2845  -0.2462  -0.2462
    -0.2053  -0.1367   4.5400   5.1693

          k = 0.0000 0.7550-0.2517 (  3570 PWs)   bands (ev):

   -86.0779 -52.2135 -52.2134 -52.2134  -0.3879  -0.3152  -0.2497  -0.2198
    -0.1122   0.8185   2.2894   4.4067

          k = 0.5033-0.5033 0.5033 (  3604 PWs)   bands (ev):

   -86.0780 -52.2136 -52.2136 -52.2136  -0.3148  -0.3148  -0.3148  -0.1719
    -0.1719   0.7043   3.1717   3.1717

          k = 0.0000 0.0000-1.0067 (  3564 PWs)   bands (ev):

   -86.0779 -52.2134 -52.2134 -52.2134  -0.4059  -0.4059  -0.1211  -0.1211
    -0.1211   1.8310   3.6226   3.6226

     the Fermi energy is    -0.0415 ev

!    total energy              =    -328.80329237 Ry

     total all-electron energy =     -2545.099828 Ry
     estimated scf accuracy    <          1.3E-09 Ry
     smearing contrib. (-TS)   =      -0.06582800 Ry
     internal energy E=F+TS    =    -328.73746437 Ry

     The total energy is F=E-TS. E is the sum of the following terms:
     one-electron contribution =    -243.52516922 Ry
     hartree contribution      =     122.03413163 Ry
     xc contribution           =     -34.43571190 Ry
     ewald contribution        =     -96.68719232 Ry
     one-center paw contrib.   =     -76.12352255 Ry

     convergence has been achieved in  27 iterations

     Forces acting on atoms (cartesian axes, Ry/au):

     atom    1 type  1   force =     0.00000000    0.00000000    0.00000000

     Total force =     0.000000     Total SCF correction =     0.000000


     Computing stress (Cartesian axis) and pressure

          total   stress  (Ry/bohr**3)                   (kbar)     P=      -41.45
  -0.00028180   0.00000000  -0.00000000          -41.45        0.00       -0.00
   0.00000000  -0.00028180   0.00000000            0.00      -41.45        0.00
  -0.00000000   0.00000000  -0.00028180           -0.00        0.00      -41.45

     Energy error            =      2.5E-03 Ry
     Gradient error          =      0.0E+00 Ry/Bohr
     Cell gradient error     =      4.1E+01 kbar

     number of scf cycles    =   2
     number of bfgs steps    =   1

     enthalpy           old  =    -328.8008201997 Ry
     enthalpy           new  =    -328.8032923688 Ry

     CASE: enthalpy          _new < enthalpy          _old


     WARNING: bfgs curvature condition failed, Theta= 0.763
     new trust radius        =       0.0423748285 bohr
ibrav =      3
 celldm(1) =      9.53912030
Input lattice vectors:
     0.49170723     0.49170723     0.49170723
    -0.49170723     0.49170723     0.49170723
    -0.49170723    -0.49170723     0.49170723
New lattice vectors in INITIAL alat:
     0.49170723     0.49170723     0.49170723
    -0.49170723     0.49170723     0.49170723
    -0.49170723    -0.49170723     0.49170723
New lattice vectors in NEW alat (for information only):
     0.50000000     0.50000000     0.50000000
    -0.50000000     0.50000000     0.50000000
    -0.50000000    -0.50000000     0.50000000
Discrepancy in bohr =     0.000000    0.000000    0.000000

Atomic positions rescaled with new alat:
Fe            0.0000000000        0.0000000000        0.0000000000
     new conv_thr            =            1.0E-10 Ry

     new unit-cell volume =    434.00525 a.u.^3 (    64.31294 Ang^3 )
     density =      1.44190 g/cm^3

CELL_PARAMETERS (alat=  9.70000000)
   0.491707232   0.491707232   0.491707232
  -0.491707232   0.491707232   0.491707232
  -0.491707232  -0.491707232   0.491707232

ATOMIC_POSITIONS (alat)
Fe            0.0000000000        0.0000000000        0.0000000000



     Writing config-only to output data dir ./fe.save/
     NEW-OLD atomic charge density approx. for the potential

     Check: negative core charge=   -0.000011
     extrapolated charge   15.50936, renormalised to   16.00000

     total cpu time spent up to now is      128.3 secs

     Self-consistent Calculation

     iteration #  1     ecut=    60.00 Ry     beta= 0.70
     Davidson diagonalization with overlap
     ethr =  1.00E-06,  avg # of iterations =  9.6

     total cpu time spent up to now is      131.4 secs

     total energy              =    -326.84566411 Ry
     estimated scf accuracy    <       2.01107631 Ry

     iteration #  2     ecut=    60.00 Ry     beta= 0.70
     Davidson diagonalization with overlap
     ethr =  1.00E-02,  avg # of iterations =  5.4

     total cpu time spent up to now is      133.7 secs

     total energy              =    -328.22017130 Ry
     estimated scf accuracy    <      30.80411851 Ry

     iteration #  3     ecut=    60.00 Ry     beta= 0.70
     Davidson diagonalization with overlap
     ethr =  1.00E-02,  avg # of iterations =  4.1

     total cpu time spent up to now is      135.7 secs

     total energy              =    -328.50039343 Ry
     estimated scf accuracy    <       4.87979088 Ry

     iteration #  4     ecut=    60.00 Ry     beta= 0.70
     Davidson diagonalization with overlap
     ethr =  1.00E-02,  avg # of iterations =  3.0

     total cpu time spent up to now is      137.5 secs

     total energy              =    -328.81598802 Ry
     estimated scf accuracy    <       0.26827034 Ry

     iteration #  5     ecut=    60.00 Ry     beta= 0.70
     Davidson diagonalization with overlap
     ethr =  1.68E-03,  avg # of iterations =  1.5

     total cpu time spent up to now is      139.4 secs

     total energy              =    -328.83339832 Ry
     estimated scf accuracy    <       0.32105500 Ry

     iteration #  6     ecut=    60.00 Ry     beta= 0.70
     Davidson diagonalization with overlap
     ethr =  1.68E-03,  avg # of iterations =  1.0

     total cpu time spent up to now is      141.1 secs

     total energy              =    -328.83099473 Ry
     estimated scf accuracy    <       0.37149380 Ry

     iteration #  7     ecut=    60.00 Ry     beta= 0.70
     Davidson diagonalization with overlap
     ethr =  1.68E-03,  avg # of iterations =  1.0

     total cpu time spent up to now is      142.9 secs

     total energy              =    -328.83019776 Ry
     estimated scf accuracy    <       0.31342914 Ry

     iteration #  8     ecut=    60.00 Ry     beta= 0.70
     Davidson diagonalization with overlap
     ethr =  1.68E-03,  avg # of iterations =  1.0

     total cpu time spent up to now is      144.7 secs

     total energy              =    -328.81850090 Ry
     estimated scf accuracy    <       0.27384752 Ry

     iteration #  9     ecut=    60.00 Ry     beta= 0.70
     Davidson diagonalization with overlap
     ethr =  1.68E-03,  avg # of iterations =  1.0

     total cpu time spent up to now is      146.5 secs

     total energy              =    -328.81518406 Ry
     estimated scf accuracy    <       0.15747977 Ry

     iteration # 10     ecut=    60.00 Ry     beta= 0.70
     Davidson diagonalization with overlap
     ethr =  9.84E-04,  avg # of iterations =  1.0

     total cpu time spent up to now is      148.2 secs

     total energy              =    -328.79410461 Ry
     estimated scf accuracy    <       0.10516126 Ry

     iteration # 11     ecut=    60.00 Ry     beta= 0.70
     Davidson diagonalization with overlap
     ethr =  6.57E-04,  avg # of iterations =  1.4

     total cpu time spent up to now is      150.0 secs

     total energy              =    -328.80548066 Ry
     estimated scf accuracy    <       0.00148947 Ry

     iteration # 12     ecut=    60.00 Ry     beta= 0.70
     Davidson diagonalization with overlap
     ethr =  9.31E-06,  avg # of iterations =  5.2

     total cpu time spent up to now is      152.0 secs

     total energy              =    -328.80751282 Ry
     estimated scf accuracy    <       0.00052125 Ry

     iteration # 13     ecut=    60.00 Ry     beta= 0.70
     Davidson diagonalization with overlap
     ethr =  3.26E-06,  avg # of iterations =  2.9

     total cpu time spent up to now is      154.0 secs

     total energy              =    -328.80723872 Ry
     estimated scf accuracy    <       0.00993259 Ry

     iteration # 14     ecut=    60.00 Ry     beta= 0.70
     Davidson diagonalization with overlap
     ethr =  3.26E-06,  avg # of iterations =  2.0

     total cpu time spent up to now is      155.7 secs

     total energy              =    -328.80706094 Ry
     estimated scf accuracy    <       0.00293172 Ry

     iteration # 15     ecut=    60.00 Ry     beta= 0.70
     Davidson diagonalization with overlap
     ethr =  3.26E-06,  avg # of iterations =  2.0

     total cpu time spent up to now is      157.7 secs

     total energy              =    -328.80719309 Ry
     estimated scf accuracy    <       0.00016964 Ry

     iteration # 16     ecut=    60.00 Ry     beta= 0.70
     Davidson diagonalization with overlap
     ethr =  1.06E-06,  avg # of iterations =  1.1

     total cpu time spent up to now is      159.4 secs

     total energy              =    -328.80719286 Ry
     estimated scf accuracy    <       0.00004557 Ry

     iteration # 17     ecut=    60.00 Ry     beta= 0.70
     Davidson diagonalization with overlap
     ethr =  2.85E-07,  avg # of iterations =  1.6

     total cpu time spent up to now is      161.2 secs

     total energy              =    -328.80719425 Ry
     estimated scf accuracy    <       0.00000613 Ry

     iteration # 18     ecut=    60.00 Ry     beta= 0.70
     Davidson diagonalization with overlap
     ethr =  3.83E-08,  avg # of iterations =  1.9

     total cpu time spent up to now is      163.0 secs

     total energy              =    -328.80719465 Ry
     estimated scf accuracy    <       0.00000080 Ry

     iteration # 19     ecut=    60.00 Ry     beta= 0.70
     Davidson diagonalization with overlap
     ethr =  5.01E-09,  avg # of iterations =  2.5

     total cpu time spent up to now is      164.8 secs

     total energy              =    -328.80719471 Ry
     estimated scf accuracy    <       0.00000037 Ry

     iteration # 20     ecut=    60.00 Ry     beta= 0.70
     Davidson diagonalization with overlap
     ethr =  2.31E-09,  avg # of iterations =  1.2

     total cpu time spent up to now is      166.5 secs

     total energy              =    -328.80719471 Ry
     estimated scf accuracy    <       0.00000017 Ry

     iteration # 21     ecut=    60.00 Ry     beta= 0.70
     Davidson diagonalization with overlap
     ethr =  1.07E-09,  avg # of iterations =  1.8

     total cpu time spent up to now is      168.3 secs

     total energy              =    -328.80719473 Ry
     estimated scf accuracy    <          2.6E-09 Ry

     iteration # 22     ecut=    60.00 Ry     beta= 0.70
     Davidson diagonalization with overlap
     ethr =  1.63E-11,  avg # of iterations =  5.4

     total cpu time spent up to now is      170.5 secs

     total energy              =    -328.80719473 Ry
     estimated scf accuracy    <          9.0E-10 Ry

     iteration # 23     ecut=    60.00 Ry     beta= 0.70
     Davidson diagonalization with overlap
     ethr =  5.62E-12,  avg # of iterations =  1.6

     total cpu time spent up to now is      172.3 secs

     total energy              =    -328.80719473 Ry
     estimated scf accuracy    <          2.6E-09 Ry

     iteration # 24     ecut=    60.00 Ry     beta= 0.70
     Davidson diagonalization with overlap
     ethr =  5.62E-12,  avg # of iterations =  2.2

     total cpu time spent up to now is      174.2 secs

     total energy              =    -328.80719473 Ry
     estimated scf accuracy    <          2.2E-09 Ry

     iteration # 25     ecut=    60.00 Ry     beta= 0.70
     Davidson diagonalization with overlap
     ethr =  5.62E-12,  avg # of iterations =  1.0

     total cpu time spent up to now is      176.0 secs

     total energy              =    -328.80719473 Ry
     estimated scf accuracy    <          2.1E-09 Ry

     iteration # 26     ecut=    60.00 Ry     beta= 0.70
     Davidson diagonalization with overlap
     ethr =  5.62E-12,  avg # of iterations =  1.1

     total cpu time spent up to now is      177.7 secs

     total energy              =    -328.80719473 Ry
     estimated scf accuracy    <          5.1E-10 Ry

     iteration # 27     ecut=    60.00 Ry     beta= 0.70
     Davidson diagonalization with overlap
     ethr =  3.20E-12,  avg # of iterations =  1.1

     total cpu time spent up to now is      179.5 secs

     End of self-consistent calculation

          k = 0.0000 0.0000 0.0000 (  3559 PWs)   bands (ev):

   -85.9632 -52.0978 -52.0978 -52.0978  -2.1263  -0.1772  -0.1772  -0.1772
    -0.0569  -0.0569   7.9926   7.9926

          k = 0.0000-0.2542 0.2542 (  3589 PWs)   bands (ev):

   -85.9633 -52.0981 -52.0980 -52.0979  -1.4289  -0.2122  -0.1631  -0.0818
    -0.0747  -0.0547   4.6546   6.7122

          k = 0.0000 0.5084-0.5084 (  3592 PWs)   bands (ev):

   -85.9633 -52.0981 -52.0980 -52.0980  -0.5216  -0.2472  -0.0719  -0.0510
     0.0230   0.6301   1.5714   5.9219

          k =-0.2542 0.7626-0.5084 (  3586 PWs)   bands (ev):

   -85.9633 -52.0981 -52.0980 -52.0979  -0.4434  -0.2062  -0.1699  -0.0705
    -0.0470   0.3089   2.9070   4.0146

          k = 0.0000 0.0000 0.5084 (  3580 PWs)   bands (ev):

   -85.9633 -52.0981 -52.0979 -52.0979  -0.7690  -0.1694  -0.1284  -0.1284
    -0.0846  -0.0118   4.7605   5.3656

          k = 0.0000 0.7626-0.2542 (  3570 PWs)   bands (ev):

   -85.9632 -52.0980 -52.0979 -52.0979  -0.2798  -0.2032  -0.1321  -0.1001
     0.0136   0.9866   2.4024   4.5809

          k = 0.5084-0.5084 0.5084 (  3604 PWs)   bands (ev):

   -85.9633 -52.0981 -52.0981 -52.0981  -0.2028  -0.2028  -0.2028  -0.0492
    -0.0492   0.8782   3.3070   3.3070

          k = 0.0000 0.0000-1.0169 (  3564 PWs)   bands (ev):

   -85.9632 -52.0979 -52.0979 -52.0979  -0.2988  -0.2988   0.0042   0.0042
     0.0042   2.0567   3.7733   3.7733

     the Fermi energy is     0.0780 ev

!    total energy              =    -328.80719473 Ry

     total all-electron energy =     -2545.103730 Ry
     estimated scf accuracy    <          5.5E-11 Ry
     smearing contrib. (-TS)   =      -0.06473980 Ry
     internal energy E=F+TS    =    -328.74245493 Ry

     The total energy is F=E-TS. E is the sum of the following terms:
     one-electron contribution =    -241.71302890 Ry
     hartree contribution      =     121.19506016 Ry
     xc contribution           =     -34.43536965 Ry
     ewald contribution        =     -97.66558482 Ry
     one-center paw contrib.   =     -76.12353171 Ry

     convergence has been achieved in  27 iterations

     Forces acting on atoms (cartesian axes, Ry/au):

     atom    1 type  1   force =     0.00000000    0.00000000    0.00000000

     Total force =     0.000000     Total SCF correction =     0.000000


     Computing stress (Cartesian axis) and pressure

          total   stress  (Ry/bohr**3)                   (kbar)     P=      -44.93
  -0.00030542  -0.00000000   0.00000000          -44.93       -0.00        0.00
  -0.00000000  -0.00030542  -0.00000000           -0.00      -44.93       -0.00
   0.00000000  -0.00000000  -0.00030542            0.00       -0.00      -44.93

     Energy error            =      3.9E-03 Ry
     Gradient error          =      0.0E+00 Ry/Bohr
     Cell gradient error     =      4.5E+01 kbar

     number of scf cycles    =   3
     number of bfgs steps    =   2

     enthalpy           old  =    -328.8032923688 Ry
     enthalpy           new  =    -328.8071947312 Ry

     CASE: enthalpy          _new < enthalpy          _old


     WARNING: bfgs curvature condition failed, Theta= 0.636
     uphill step: resetting bfgs history

     new trust radius        =       0.0318138947 bohr
ibrav =      3
 celldm(1) =      9.46628404
Input lattice vectors:
     0.48795279     0.48795279     0.48795279
    -0.48795279     0.48795279     0.48795279
    -0.48795279    -0.48795279     0.48795279
New lattice vectors in INITIAL alat:
     0.48795279     0.48795279     0.48795279
    -0.48795279     0.48795279     0.48795279
    -0.48795279    -0.48795279     0.48795279
New lattice vectors in NEW alat (for information only):
     0.50000000     0.50000000     0.50000000
    -0.50000000     0.50000000     0.50000000
    -0.50000000    -0.50000000     0.50000000
Discrepancy in bohr =     0.000000    0.000000    0.000000

Atomic positions rescaled with new alat:
Fe            0.0000000000        0.0000000000        0.0000000000
     new conv_thr            =            1.0E-10 Ry

     new unit-cell volume =    424.13938 a.u.^3 (    62.85097 Ang^3 )
     density =      1.47544 g/cm^3

CELL_PARAMETERS (alat=  9.70000000)
   0.487952785   0.487952785   0.487952785
  -0.487952785   0.487952785   0.487952785
  -0.487952785  -0.487952785   0.487952785

ATOMIC_POSITIONS (alat)
Fe            0.0000000000        0.0000000000        0.0000000000



     Writing config-only to output data dir ./fe.save/
     NEW-OLD atomic charge density approx. for the potential

     Check: negative core charge=   -0.000011
     extrapolated charge   15.62784, renormalised to   16.00000

     total cpu time spent up to now is      202.7 secs

     Self-consistent Calculation

     iteration #  1     ecut=    60.00 Ry     beta= 0.70
     Davidson diagonalization with overlap
     ethr =  1.00E-06,  avg # of iterations =  9.4

     total cpu time spent up to now is      205.7 secs

     total energy              =    -327.23269518 Ry
     estimated scf accuracy    <       1.64139800 Ry

     iteration #  2     ecut=    60.00 Ry     beta= 0.70
     Davidson diagonalization with overlap
     ethr =  1.00E-02,  avg # of iterations =  5.1

     total cpu time spent up to now is      208.0 secs

     total energy              =    -328.07214551 Ry
     estimated scf accuracy    <      28.72290146 Ry

     iteration #  3     ecut=    60.00 Ry     beta= 0.70
     Davidson diagonalization with overlap
     ethr =  1.00E-02,  avg # of iterations =  4.0

     total cpu time spent up to now is      210.0 secs

     total energy              =    -328.69036194 Ry
     estimated scf accuracy    <       3.46802135 Ry

     iteration #  4     ecut=    60.00 Ry     beta= 0.70
     Davidson diagonalization with overlap
     ethr =  1.00E-02,  avg # of iterations =  1.8

     total cpu time spent up to now is      211.8 secs

     total energy              =    -328.82871444 Ry
     estimated scf accuracy    <       0.57457582 Ry

     iteration #  5     ecut=    60.00 Ry     beta= 0.70
     Davidson diagonalization with overlap
     ethr =  3.59E-03,  avg # of iterations =  1.6

     total cpu time spent up to now is      213.6 secs

     total energy              =    -328.84806045 Ry
     estimated scf accuracy    <       0.53860851 Ry

     iteration #  6     ecut=    60.00 Ry     beta= 0.70
     Davidson diagonalization with overlap
     ethr =  3.37E-03,  avg # of iterations =  1.0

     total cpu time spent up to now is      215.3 secs

     total energy              =    -328.85100205 Ry
     estimated scf accuracy    <       0.52482522 Ry

     iteration #  7     ecut=    60.00 Ry     beta= 0.70
     Davidson diagonalization with overlap
     ethr =  3.28E-03,  avg # of iterations =  1.0

     total cpu time spent up to now is      217.0 secs

     total energy              =    -328.85021970 Ry
     estimated scf accuracy    <       0.51149419 Ry

     iteration #  8     ecut=    60.00 Ry     beta= 0.70
     Davidson diagonalization with overlap
     ethr =  3.20E-03,  avg # of iterations =  1.0

     total cpu time spent up to now is      218.8 secs

     total energy              =    -328.86855681 Ry
     estimated scf accuracy    <       0.47530773 Ry

     iteration #  9     ecut=    60.00 Ry     beta= 0.70
     Davidson diagonalization with overlap
     ethr =  2.97E-03,  avg # of iterations =  1.0

     total cpu time spent up to now is      220.6 secs

     total energy              =    -328.87405970 Ry
     estimated scf accuracy    <       0.64530529 Ry

     iteration # 10     ecut=    60.00 Ry     beta= 0.70
     Davidson diagonalization with overlap
     ethr =  2.97E-03,  avg # of iterations =  1.0

     negative rho (up, down):  2.327E-04 0.000E+00

     total cpu time spent up to now is      222.3 secs

     total energy              =    -328.87396680 Ry
     estimated scf accuracy    <       0.69006420 Ry

     iteration # 11     ecut=    60.00 Ry     beta= 0.70
     Davidson diagonalization with overlap
     ethr =  2.97E-03,  avg # of iterations =  1.0

     negative rho (up, down):  2.659E-04 0.000E+00

     total cpu time spent up to now is      224.1 secs

     total energy              =    -328.89136477 Ry
     estimated scf accuracy    <       0.71408871 Ry

     iteration # 12     ecut=    60.00 Ry     beta= 0.70
     Davidson diagonalization with overlap
     ethr =  2.97E-03,  avg # of iterations =  1.0

     total cpu time spent up to now is      225.8 secs

     total energy              =    -328.86788596 Ry
     estimated scf accuracy    <       0.87719148 Ry

     iteration # 13     ecut=    60.00 Ry     beta= 0.70
     Davidson diagonalization with overlap
     ethr =  2.97E-03,  avg # of iterations =  1.0

     total cpu time spent up to now is      227.5 secs

     total energy              =    -328.72214593 Ry
     estimated scf accuracy    <       0.67255623 Ry

     iteration # 14     ecut=    60.00 Ry     beta= 0.70
     Davidson diagonalization with overlap
     ethr =  2.97E-03,  avg # of iterations =  2.0

     total cpu time spent up to now is      229.4 secs

     total energy              =    -328.81874879 Ry
     estimated scf accuracy    <       0.04741581 Ry

     iteration # 15     ecut=    60.00 Ry     beta= 0.70
     Davidson diagonalization with overlap
     ethr =  2.96E-04,  avg # of iterations =  2.2

     total cpu time spent up to now is      231.3 secs

     total energy              =    -328.81251707 Ry
     estimated scf accuracy    <       0.17459968 Ry

     iteration # 16     ecut=    60.00 Ry     beta= 0.70
     Davidson diagonalization with overlap
     ethr =  2.96E-04,  avg # of iterations =  1.0

     total cpu time spent up to now is      233.0 secs

     total energy              =    -328.81211376 Ry
     estimated scf accuracy    <       0.07949409 Ry

     iteration # 17     ecut=    60.00 Ry     beta= 0.70
     Davidson diagonalization with overlap
     ethr =  2.96E-04,  avg # of iterations =  1.0

     total cpu time spent up to now is      234.8 secs

     total energy              =    -328.80763312 Ry
     estimated scf accuracy    <       0.07181154 Ry

     iteration # 18     ecut=    60.00 Ry     beta= 0.70
     Davidson diagonalization with overlap
     ethr =  2.96E-04,  avg # of iterations =  1.0

     total cpu time spent up to now is      236.5 secs

     total energy              =    -328.80311548 Ry
     estimated scf accuracy    <       0.03657248 Ry

     iteration # 19     ecut=    60.00 Ry     beta= 0.70
     Davidson diagonalization with overlap
     ethr =  2.29E-04,  avg # of iterations =  1.0

     total cpu time spent up to now is      238.2 secs

     total energy              =    -328.80582022 Ry
     estimated scf accuracy    <       0.00030869 Ry

     iteration # 20     ecut=    60.00 Ry     beta= 0.70
     Davidson diagonalization with overlap
     ethr =  1.93E-06,  avg # of iterations =  6.2

     total cpu time spent up to now is      240.3 secs

     total energy              =    -328.81012721 Ry
     estimated scf accuracy    <       0.00025201 Ry

     iteration # 21     ecut=    60.00 Ry     beta= 0.70
     Davidson diagonalization with overlap
     ethr =  1.58E-06,  avg # of iterations =  1.0

     total cpu time spent up to now is      242.1 secs

     total energy              =    -328.81012626 Ry
     estimated scf accuracy    <       0.00022384 Ry

     iteration # 22     ecut=    60.00 Ry     beta= 0.70
     Davidson diagonalization with overlap
     ethr =  1.40E-06,  avg # of iterations =  1.0

     total cpu time spent up to now is      243.8 secs

     total energy              =    -328.81014806 Ry
     estimated scf accuracy    <       0.00012930 Ry

     iteration # 23     ecut=    60.00 Ry     beta= 0.70
     Davidson diagonalization with overlap
     ethr =  8.08E-07,  avg # of iterations =  1.0

     total cpu time spent up to now is      245.6 secs

     total energy              =    -328.81027314 Ry
     estimated scf accuracy    <       0.00009965 Ry

     iteration # 24     ecut=    60.00 Ry     beta= 0.70
     Davidson diagonalization with overlap
     ethr =  6.23E-07,  avg # of iterations =  1.0

     total cpu time spent up to now is      247.4 secs

     total energy              =    -328.81028849 Ry
     estimated scf accuracy    <       0.00001212 Ry

     iteration # 25     ecut=    60.00 Ry     beta= 0.70
     Davidson diagonalization with overlap
     ethr =  7.57E-08,  avg # of iterations =  1.1

     total cpu time spent up to now is      249.2 secs

     total energy              =    -328.81030480 Ry
     estimated scf accuracy    <       0.00001211 Ry

     iteration # 26     ecut=    60.00 Ry     beta= 0.70
     Davidson diagonalization with overlap
     ethr =  7.57E-08,  avg # of iterations =  1.0

     total cpu time spent up to now is      251.0 secs

     total energy              =    -328.81030508 Ry
     estimated scf accuracy    <       0.00000005 Ry

     iteration # 27     ecut=    60.00 Ry     beta= 0.70
     Davidson diagonalization with overlap
     ethr =  3.40E-10,  avg # of iterations =  5.1

     total cpu time spent up to now is      253.1 secs

     total energy              =    -328.81030512 Ry
     estimated scf accuracy    <       0.00000004 Ry

     iteration # 28     ecut=    60.00 Ry     beta= 0.70
     Davidson diagonalization with overlap
     ethr =  2.28E-10,  avg # of iterations =  2.0

     total cpu time spent up to now is      255.0 secs

     total energy              =    -328.81030517 Ry
     estimated scf accuracy    <       0.00000004 Ry

     iteration # 29     ecut=    60.00 Ry     beta= 0.70
     Davidson diagonalization with overlap
     ethr =  2.28E-10,  avg # of iterations =  1.0

     total cpu time spent up to now is      256.8 secs

     total energy              =    -328.81030517 Ry
     estimated scf accuracy    <          2.4E-09 Ry

     iteration # 30     ecut=    60.00 Ry     beta= 0.70
     Davidson diagonalization with overlap
     ethr =  1.48E-11,  avg # of iterations =  2.1

     total cpu time spent up to now is      258.6 secs

     End of self-consistent calculation

          k = 0.0000 0.0000 0.0000 (  3559 PWs)   bands (ev):

   -85.8743 -52.0083 -52.0083 -52.0083  -2.0858  -0.0873  -0.0873  -0.0873
     0.0378   0.0378   8.2177   8.2177

          k = 0.0000-0.2562 0.2562 (  3589 PWs)   bands (ev):

   -85.8743 -52.0087 -52.0085 -52.0085  -1.3746  -0.1240  -0.0735   0.0119
     0.0193   0.0403   4.8100   6.9006

          k = 0.0000 0.5123-0.5123 (  3592 PWs)   bands (ev):

   -85.8743 -52.0087 -52.0086 -52.0085  -0.4442  -0.1607   0.0224   0.0442
     0.1211   0.7534   1.6405   6.0913

          k =-0.2562 0.7685-0.5123 (  3586 PWs)   bands (ev):

   -85.8743 -52.0086 -52.0086 -52.0085  -0.3648  -0.1192  -0.0816   0.0237
     0.0484   0.4149   3.0266   4.1346

          k = 0.0000 0.0000 0.5123 (  3580 PWs)   bands (ev):

   -85.8743 -52.0087 -52.0084 -52.0084  -0.7018  -0.0800  -0.0371  -0.0371
     0.0091   0.0852   4.9337   5.5191

          k = 0.0000 0.7685-0.2562 (  3570 PWs)   bands (ev):

   -85.8743 -52.0086 -52.0085 -52.0085  -0.1960  -0.1165  -0.0409  -0.0072
     0.1114   1.1177   2.4915   4.7173

          k = 0.5123-0.5123 0.5123 (  3604 PWs)   bands (ev):

   -85.8744 -52.0087 -52.0087 -52.0087  -0.1161  -0.1161  -0.1161   0.0461
     0.0461   1.0143   3.4135   3.4135

          k = 0.0000 0.0000-1.0247 (  3564 PWs)   bands (ev):

   -85.8743 -52.0085 -52.0085 -52.0085  -0.2158  -0.2158   0.1016   0.1016
     0.1016   2.2336   3.8915   3.8915

     the Fermi energy is     0.1706 ev

!    total energy              =    -328.81030517 Ry

     total all-electron energy =     -2545.106841 Ry
     estimated scf accuracy    <          5.9E-11 Ry
     smearing contrib. (-TS)   =      -0.06391485 Ry
     internal energy E=F+TS    =    -328.74639032 Ry

     The total energy is F=E-TS. E is the sum of the following terms:
     one-electron contribution =    -240.32193960 Ry
     hartree contribution      =     120.55113546 Ry
     xc contribution           =     -34.43497151 Ry
     ewald contribution        =     -98.41705146 Ry
     one-center paw contrib.   =     -76.12356322 Ry

     convergence has been achieved in  30 iterations

     Forces acting on atoms (cartesian axes, Ry/au):

     atom    1 type  1   force =     0.00000000    0.00000000    0.00000000

     Total force =     0.000000     Total SCF correction =     0.000000


     Computing stress (Cartesian axis) and pressure

          total   stress  (Ry/bohr**3)                   (kbar)     P=      -47.85
  -0.00032526   0.00000000  -0.00000000          -47.85        0.00       -0.00
   0.00000000  -0.00032526   0.00000000            0.00      -47.85        0.00
  -0.00000000   0.00000000  -0.00032526           -0.00        0.00      -47.85

     Energy error            =      3.1E-03 Ry
     Gradient error          =      0.0E+00 Ry/Bohr
     Cell gradient error     =      4.8E+01 kbar

     number of scf cycles    =   4
     number of bfgs steps    =   3

     enthalpy           old  =    -328.8071947312 Ry
     enthalpy           new  =    -328.8103051709 Ry

     CASE: enthalpy          _new < enthalpy          _old


     WARNING: bfgs curvature condition failed, Theta= 0.763
     new trust radius        =       0.0475383060 bohr
ibrav =      3
 celldm(1) =      9.35702964
Input lattice vectors:
     0.48232112     0.48232112     0.48232112
    -0.48232112     0.48232112     0.48232112
    -0.48232112    -0.48232112     0.48232112
New lattice vectors in INITIAL alat:
     0.48232112     0.48232112     0.48232112
    -0.48232112     0.48232112     0.48232112
    -0.48232112    -0.48232112     0.48232112
New lattice vectors in NEW alat (for information only):
     0.50000000     0.50000000     0.50000000
    -0.50000000     0.50000000     0.50000000
    -0.50000000    -0.50000000     0.50000000
Discrepancy in bohr =     0.000000    0.000000    0.000000

Atomic positions rescaled with new alat:
Fe            0.0000000000        0.0000000000        0.0000000000
     new conv_thr            =            1.0E-10 Ry

     new unit-cell volume =    409.62270 a.u.^3 (    60.69982 Ang^3 )
     density =      1.52773 g/cm^3

CELL_PARAMETERS (alat=  9.70000000)
   0.482321115   0.482321115   0.482321115
  -0.482321115   0.482321115   0.482321115
  -0.482321115  -0.482321115   0.482321115

ATOMIC_POSITIONS (alat)
Fe            0.0000000000        0.0000000000        0.0000000000



     Writing config-only to output data dir ./fe.save/
     NEW-OLD atomic charge density approx. for the potential

     Check: negative core charge=   -0.000010
     extrapolated charge   15.43299, renormalised to   16.00000

     total cpu time spent up to now is      281.8 secs

     Self-consistent Calculation

     iteration #  1     ecut=    60.00 Ry     beta= 0.70
     Davidson diagonalization with overlap
     ethr =  1.00E-06,  avg # of iterations = 10.0

     total cpu time spent up to now is      284.7 secs

     total energy              =    -326.59526451 Ry
     estimated scf accuracy    <       2.25169430 Ry

     iteration #  2     ecut=    60.00 Ry     beta= 0.70
     Davidson diagonalization with overlap
     ethr =  1.00E-02,  avg # of iterations =  5.4

     total cpu time spent up to now is      286.9 secs

     total energy              =    -328.29148632 Ry
     estimated scf accuracy    <      31.62690731 Ry

     iteration #  3     ecut=    60.00 Ry     beta= 0.70
     Davidson diagonalization with overlap
     ethr =  1.00E-02,  avg # of iterations =  4.2

     total cpu time spent up to now is      288.9 secs

     total energy              =    -328.43622958 Ry
     estimated scf accuracy    <       5.48244648 Ry

     iteration #  4     ecut=    60.00 Ry     beta= 0.70
     Davidson diagonalization with overlap
     ethr =  1.00E-02,  avg # of iterations =  2.5

     total cpu time spent up to now is      290.7 secs

     total energy              =    -328.81544221 Ry
     estimated scf accuracy    <       0.24119173 Ry

     iteration #  5     ecut=    60.00 Ry     beta= 0.70
     Davidson diagonalization with overlap
     ethr =  1.51E-03,  avg # of iterations =  2.0

     total cpu time spent up to now is      292.5 secs

     total energy              =    -328.84298057 Ry
     estimated scf accuracy    <       0.28607082 Ry

     iteration #  6     ecut=    60.00 Ry     beta= 0.70
     Davidson diagonalization with overlap
     ethr =  1.51E-03,  avg # of iterations =  1.0

     total cpu time spent up to now is      294.3 secs

     total energy              =    -328.85032682 Ry
     estimated scf accuracy    <       0.37316584 Ry

     iteration #  7     ecut=    60.00 Ry     beta= 0.70
     Davidson diagonalization with overlap
     ethr =  1.51E-03,  avg # of iterations =  1.0

     total cpu time spent up to now is      296.0 secs

     total energy              =    -328.85733159 Ry
     estimated scf accuracy    <       0.38321224 Ry

     iteration #  8     ecut=    60.00 Ry     beta= 0.70
     Davidson diagonalization with overlap
     ethr =  1.51E-03,  avg # of iterations =  1.0

     total cpu time spent up to now is      297.8 secs

     total energy              =    -328.82731639 Ry
     estimated scf accuracy    <       0.41768782 Ry

     iteration #  9     ecut=    60.00 Ry     beta= 0.70
     Davidson diagonalization with overlap
     ethr =  1.51E-03,  avg # of iterations =  1.0

     total cpu time spent up to now is      299.5 secs

     total energy              =    -328.81060168 Ry
     estimated scf accuracy    <       0.20048828 Ry

     iteration # 10     ecut=    60.00 Ry     beta= 0.70
     Davidson diagonalization with overlap
     ethr =  1.25E-03,  avg # of iterations =  1.0

     total cpu time spent up to now is      301.2 secs

     total energy              =    -328.80831409 Ry
     estimated scf accuracy    <       0.04196062 Ry

     iteration # 11     ecut=    60.00 Ry     beta= 0.70
     Davidson diagonalization with overlap
     ethr =  2.62E-04,  avg # of iterations =  2.2

     total cpu time spent up to now is      303.1 secs

     total energy              =    -328.81466508 Ry
     estimated scf accuracy    <       0.00354975 Ry

     iteration # 12     ecut=    60.00 Ry     beta= 0.70
     Davidson diagonalization with overlap
     ethr =  2.22E-05,  avg # of iterations =  4.2

     total cpu time spent up to now is      305.0 secs

     total energy              =    -328.81611314 Ry
     estimated scf accuracy    <       0.00280048 Ry

     iteration # 13     ecut=    60.00 Ry     beta= 0.70
     Davidson diagonalization with overlap
     ethr =  1.75E-05,  avg # of iterations =  2.4

     total cpu time spent up to now is      306.9 secs

     total energy              =    -328.82208621 Ry
     estimated scf accuracy    <       0.04070705 Ry

     iteration # 14     ecut=    60.00 Ry     beta= 0.70
     Davidson diagonalization with overlap
     ethr =  1.75E-05,  avg # of iterations =  2.0

     total cpu time spent up to now is      308.7 secs

     total energy              =    -328.80792465 Ry
     estimated scf accuracy    <       0.07974962 Ry

     iteration # 15     ecut=    60.00 Ry     beta= 0.70
     Davidson diagonalization with overlap
     ethr =  1.75E-05,  avg # of iterations =  3.2

     total cpu time spent up to now is      310.7 secs

     total energy              =    -328.81512453 Ry
     estimated scf accuracy    <       0.00011561 Ry

     iteration # 16     ecut=    60.00 Ry     beta= 0.70
     Davidson diagonalization with overlap
     ethr =  7.23E-07,  avg # of iterations =  3.9

     total cpu time spent up to now is      312.6 secs

     total energy              =    -328.81527465 Ry
     estimated scf accuracy    <       0.00930599 Ry

     iteration # 17     ecut=    60.00 Ry     beta= 0.70
     Davidson diagonalization with overlap
     ethr =  7.23E-07,  avg # of iterations =  3.1

     total cpu time spent up to now is      314.5 secs

     total energy              =    -328.81504172 Ry
     estimated scf accuracy    <       0.00248036 Ry

     iteration # 18     ecut=    60.00 Ry     beta= 0.70
     Davidson diagonalization with overlap
     ethr =  7.23E-07,  avg # of iterations =  3.5

     total cpu time spent up to now is      316.6 secs

     total energy              =    -328.81525378 Ry
     estimated scf accuracy    <       0.00000148 Ry

     iteration # 19     ecut=    60.00 Ry     beta= 0.70
     Davidson diagonalization with overlap
     ethr =  9.24E-09,  avg # of iterations =  5.4

     total cpu time spent up to now is      318.8 secs

     total energy              =    -328.81525768 Ry
     estimated scf accuracy    <       0.00000816 Ry

     iteration # 20     ecut=    60.00 Ry     beta= 0.70
     Davidson diagonalization with overlap
     ethr =  9.24E-09,  avg # of iterations =  1.0

     total cpu time spent up to now is      320.5 secs

     total energy              =    -328.81525759 Ry
     estimated scf accuracy    <       0.00000804 Ry

     iteration # 21     ecut=    60.00 Ry     beta= 0.70
     Davidson diagonalization with overlap
     ethr =  9.24E-09,  avg # of iterations =  1.0

     total cpu time spent up to now is      322.3 secs

     total energy              =    -328.81525726 Ry
     estimated scf accuracy    <       0.00000768 Ry

     iteration # 22     ecut=    60.00 Ry     beta= 0.70
     Davidson diagonalization with overlap
     ethr =  9.24E-09,  avg # of iterations =  1.0

     total cpu time spent up to now is      324.1 secs

     total energy              =    -328.81525595 Ry
     estimated scf accuracy    <       0.00000612 Ry

     iteration # 23     ecut=    60.00 Ry     beta= 0.70
     Davidson diagonalization with overlap
     ethr =  9.24E-09,  avg # of iterations =  2.0

     total cpu time spent up to now is      326.0 secs

     total energy              =    -328.81525559 Ry
     estimated scf accuracy    <       0.00000162 Ry

     iteration # 24     ecut=    60.00 Ry     beta= 0.70
     Davidson diagonalization with overlap
     ethr =  9.24E-09,  avg # of iterations =  2.0

     total cpu time spent up to now is      327.8 secs

     total energy              =    -328.81525576 Ry
     estimated scf accuracy    <       0.00000003 Ry

     iteration # 25     ecut=    60.00 Ry     beta= 0.70
     Davidson diagonalization with overlap
     ethr =  2.14E-10,  avg # of iterations =  5.5

     total cpu time spent up to now is      329.9 secs

     total energy              =    -328.81525579 Ry
     estimated scf accuracy    <       0.00000003 Ry

     iteration # 26     ecut=    60.00 Ry     beta= 0.70
     Davidson diagonalization with overlap
     ethr =  1.82E-10,  avg # of iterations =  1.0

     total cpu time spent up to now is      331.7 secs

     total energy              =    -328.81525580 Ry
     estimated scf accuracy    <          9.5E-10 Ry

     iteration # 27     ecut=    60.00 Ry     beta= 0.70
     Davidson diagonalization with overlap
     ethr =  5.95E-12,  avg # of iterations =  4.2

     total cpu time spent up to now is      333.7 secs

     total energy              =    -328.81525580 Ry
     estimated scf accuracy    <          1.5E-09 Ry

     iteration # 28     ecut=    60.00 Ry     beta= 0.70
     Davidson diagonalization with overlap
     ethr =  5.95E-12,  avg # of iterations =  2.1

     total cpu time spent up to now is      335.5 secs

     End of self-consistent calculation

          k = 0.0000 0.0000 0.0000 (  3559 PWs)   bands (ev):

   -85.7367 -51.8701 -51.8701 -51.8701  -2.0215   0.0518   0.0518   0.0518
     0.1848   0.1848   8.5683   8.5683

          k = 0.0000-0.2592 0.2592 (  3589 PWs)   bands (ev):

   -85.7367 -51.8706 -51.8704 -51.8703  -1.2892   0.0125   0.0650   0.1572
     0.1651   0.1874   5.0527   7.1941

          k = 0.0000 0.5183-0.5183 (  3592 PWs)   bands (ev):

   -85.7367 -51.8706 -51.8704 -51.8704  -0.3242  -0.0268   0.1687   0.1918
     0.2734   0.9455   1.7498   6.3552

          k =-0.2592 0.7775-0.5183 (  3586 PWs)   bands (ev):

   -85.7367 -51.8705 -51.8705 -51.8704  -0.2430   0.0155   0.0551   0.1697
     0.1963   0.5794   3.2154   4.3227

          k = 0.0000 0.0000 0.5183 (  3580 PWs)   bands (ev):

   -85.7367 -51.8706 -51.8703 -51.8703  -0.5969   0.0582   0.1045   0.1045
     0.1542   0.2358   5.2052   5.7586

          k = 0.0000 0.7775-0.2592 (  3570 PWs)   bands (ev):

   -85.7367 -51.8704 -51.8704 -51.8704  -0.0664   0.0176   0.1004   0.1368
     0.2630   1.3219   2.6320   4.9303

          k = 0.5183-0.5183 0.5183 (  3604 PWs)   bands (ev):

   -85.7368 -51.8706 -51.8706 -51.8706   0.0181   0.0181   0.0181   0.1938
     0.1938   1.2271   3.5809   3.5809

          k = 0.0000 0.0000-1.0367 (  3564 PWs)   bands (ev):

   -85.7367 -51.8704 -51.8704 -51.8704  -0.0875  -0.0875   0.2526   0.2526
     0.2526   2.5102   4.0762   4.0762

     the Fermi energy is     0.3141 ev

!    total energy              =    -328.81525580 Ry

     total all-electron energy =     -2545.111791 Ry
     estimated scf accuracy    <          3.5E-11 Ry
     smearing contrib. (-TS)   =      -0.06267657 Ry
     internal energy E=F+TS    =    -328.75257923 Ry

     The total energy is F=E-TS. E is the sum of the following terms:
     one-electron contribution =    -238.19684949 Ry
     hartree contribution      =     119.56838742 Ry
     xc contribution           =     -34.43427541 Ry
     ewald contribution        =     -99.56618706 Ry
     one-center paw contrib.   =     -76.12365468 Ry

     convergence has been achieved in  28 iterations

     Forces acting on atoms (cartesian axes, Ry/au):

     atom    1 type  1   force =     0.00000000    0.00000000    0.00000000

     Total force =     0.000000     Total SCF correction =     0.000000


     Computing stress (Cartesian axis) and pressure

          total   stress  (Ry/bohr**3)                   (kbar)     P=      -52.55
  -0.00035723   0.00000000  -0.00000000          -52.55        0.00       -0.00
   0.00000000  -0.00035723   0.00000000            0.00      -52.55        0.00
  -0.00000000   0.00000000  -0.00035723           -0.00        0.00      -52.55

     Energy error            =      5.0E-03 Ry
     Gradient error          =      0.0E+00 Ry/Bohr
     Cell gradient error     =      5.3E+01 kbar

     number of scf cycles    =   5
     number of bfgs steps    =   4

     enthalpy           old  =    -328.8103051709 Ry
     enthalpy           new  =    -328.8152557967 Ry

     CASE: enthalpy          _new < enthalpy          _old


     WARNING: bfgs curvature condition failed, Theta= 0.624
     uphill step: resetting bfgs history

     new trust radius        =       0.0361496547 bohr
ibrav =      3
 celldm(1) =      9.27346546
Input lattice vectors:
     0.47801368     0.47801368     0.47801368
    -0.47801368     0.47801368     0.47801368
    -0.47801368    -0.47801368     0.47801368
New lattice vectors in INITIAL alat:
     0.47801368     0.47801368     0.47801368
    -0.47801368     0.47801368     0.47801368
    -0.47801368    -0.47801368     0.47801368
New lattice vectors in NEW alat (for information only):
     0.50000000     0.50000000     0.50000000
    -0.50000000     0.50000000     0.50000000
    -0.50000000    -0.50000000     0.50000000
Discrepancy in bohr =     0.000000    0.000000    0.000000

Atomic positions rescaled with new alat:
Fe            0.0000000000        0.0000000000        0.0000000000
     new conv_thr            =            1.0E-10 Ry

     new unit-cell volume =    398.74585 a.u.^3 (    59.08804 Ang^3 )
     density =      1.56940 g/cm^3

CELL_PARAMETERS (alat=  9.70000000)
   0.478013683   0.478013683   0.478013683
  -0.478013683   0.478013683   0.478013683
  -0.478013683  -0.478013683   0.478013683

ATOMIC_POSITIONS (alat)
Fe            0.0000000000        0.0000000000        0.0000000000



     Writing config-only to output data dir ./fe.save/
     NEW-OLD atomic charge density approx. for the potential

     Check: negative core charge=   -0.000009
     extrapolated charge   15.56357, renormalised to   16.00000

     total cpu time spent up to now is      358.8 secs

     Self-consistent Calculation

     iteration #  1     ecut=    60.00 Ry     beta= 0.70
     Davidson diagonalization with overlap
     ethr =  1.00E-06,  avg # of iterations =  9.6

     total cpu time spent up to now is      361.6 secs

     total energy              =    -327.02305481 Ry
     estimated scf accuracy    <       1.84964954 Ry

     iteration #  2     ecut=    60.00 Ry     beta= 0.70
     Davidson diagonalization with overlap
     ethr =  1.00E-02,  avg # of iterations =  5.1

     total cpu time spent up to now is      363.8 secs

     total energy              =    -328.15658596 Ry
     estimated scf accuracy    <      29.16886865 Ry

     iteration #  3     ecut=    60.00 Ry     beta= 0.70
     Davidson diagonalization with overlap
     ethr =  1.00E-02,  avg # of iterations =  4.4

     total cpu time spent up to now is      365.8 secs

     total energy              =    -328.61376448 Ry
     estimated scf accuracy    <       4.15882005 Ry

     iteration #  4     ecut=    60.00 Ry     beta= 0.70
     Davidson diagonalization with overlap
     ethr =  1.00E-02,  avg # of iterations =  2.2

     total cpu time spent up to now is      367.6 secs

     total energy              =    -328.81841535 Ry
     estimated scf accuracy    <       0.47573566 Ry

     iteration #  5     ecut=    60.00 Ry     beta= 0.70
     Davidson diagonalization with overlap
     ethr =  2.97E-03,  avg # of iterations =  1.6

     total cpu time spent up to now is      369.4 secs

     total energy              =    -328.84313847 Ry
     estimated scf accuracy    <       0.36856104 Ry

     iteration #  6     ecut=    60.00 Ry     beta= 0.70
     Davidson diagonalization with overlap
     ethr =  2.30E-03,  avg # of iterations =  1.1

     total cpu time spent up to now is      371.2 secs

     total energy              =    -328.84273625 Ry
     estimated scf accuracy    <       0.37006140 Ry

     iteration #  7     ecut=    60.00 Ry     beta= 0.70
     Davidson diagonalization with overlap
     ethr =  2.30E-03,  avg # of iterations =  1.0

     total cpu time spent up to now is      372.9 secs

     total energy              =    -328.84059013 Ry
     estimated scf accuracy    <       0.30929529 Ry

     iteration #  8     ecut=    60.00 Ry     beta= 0.70
     Davidson diagonalization with overlap
     ethr =  1.93E-03,  avg # of iterations =  1.0

     total cpu time spent up to now is      374.7 secs

     total energy              =    -328.83316727 Ry
     estimated scf accuracy    <       0.25240934 Ry

     iteration #  9     ecut=    60.00 Ry     beta= 0.70
     Davidson diagonalization with overlap
     ethr =  1.58E-03,  avg # of iterations =  1.0

     total cpu time spent up to now is      376.5 secs

     total energy              =    -328.82816500 Ry
     estimated scf accuracy    <       0.16821394 Ry

     iteration # 10     ecut=    60.00 Ry     beta= 0.70
     Davidson diagonalization with overlap
     ethr =  1.05E-03,  avg # of iterations =  1.0

     total cpu time spent up to now is      378.2 secs

     total energy              =    -328.80816088 Ry
     estimated scf accuracy    <       0.11382902 Ry

     iteration # 11     ecut=    60.00 Ry     beta= 0.70
     Davidson diagonalization with overlap
     ethr =  7.11E-04,  avg # of iterations =  1.4

     total cpu time spent up to now is      380.0 secs

     total energy              =    -328.81776781 Ry
     estimated scf accuracy    <       0.00085060 Ry

     iteration # 12     ecut=    60.00 Ry     beta= 0.70
     Davidson diagonalization with overlap
     ethr =  5.32E-06,  avg # of iterations =  5.6

     total cpu time spent up to now is      382.1 secs

     total energy              =    -328.81956647 Ry
     estimated scf accuracy    <       0.00092400 Ry

     iteration # 13     ecut=    60.00 Ry     beta= 0.70
     Davidson diagonalization with overlap
     ethr =  5.32E-06,  avg # of iterations =  2.0

     total cpu time spent up to now is      384.0 secs

     total energy              =    -328.81886279 Ry
     estimated scf accuracy    <       0.00157094 Ry

     iteration # 14     ecut=    60.00 Ry     beta= 0.70
     Davidson diagonalization with overlap
     ethr =  5.32E-06,  avg # of iterations =  2.2

     total cpu time spent up to now is      385.9 secs

     total energy              =    -328.81941912 Ry
     estimated scf accuracy    <       0.00209186 Ry

     iteration # 15     ecut=    60.00 Ry     beta= 0.70
     Davidson diagonalization with overlap
     ethr =  5.32E-06,  avg # of iterations =  1.0

     total cpu time spent up to now is      387.7 secs

     total energy              =    -328.81929210 Ry
     estimated scf accuracy    <       0.00088806 Ry

     iteration # 16     ecut=    60.00 Ry     beta= 0.70
     Davidson diagonalization with overlap
     ethr =  5.32E-06,  avg # of iterations =  1.0

     total cpu time spent up to now is      389.4 secs

     total energy              =    -328.81930917 Ry
     estimated scf accuracy    <       0.00013499 Ry

     iteration # 17     ecut=    60.00 Ry     beta= 0.70
     Davidson diagonalization with overlap
     ethr =  8.44E-07,  avg # of iterations =  1.0

     total cpu time spent up to now is      391.2 secs

     total energy              =    -328.81931041 Ry
     estimated scf accuracy    <       0.00015681 Ry

     iteration # 18     ecut=    60.00 Ry     beta= 0.70
     Davidson diagonalization with overlap
     ethr =  8.44E-07,  avg # of iterations =  1.0

     total cpu time spent up to now is      392.9 secs

     total energy              =    -328.81928750 Ry
     estimated scf accuracy    <       0.00019391 Ry

     iteration # 19     ecut=    60.00 Ry     beta= 0.70
     Davidson diagonalization with overlap
     ethr =  8.44E-07,  avg # of iterations =  1.0

     total cpu time spent up to now is      394.6 secs

     total energy              =    -328.81928919 Ry
     estimated scf accuracy    <       0.00005713 Ry

     iteration # 20     ecut=    60.00 Ry     beta= 0.70
     Davidson diagonalization with overlap
     ethr =  3.57E-07,  avg # of iterations =  1.0

     total cpu time spent up to now is      396.4 secs

     total energy              =    -328.81927713 Ry
     estimated scf accuracy    <       0.00004312 Ry

     iteration # 21     ecut=    60.00 Ry     beta= 0.70
     Davidson diagonalization with overlap
     ethr =  2.69E-07,  avg # of iterations =  1.8

     total cpu time spent up to now is      398.2 secs

     total energy              =    -328.81928108 Ry
     estimated scf accuracy    <       0.00000143 Ry

     iteration # 22     ecut=    60.00 Ry     beta= 0.70
     Davidson diagonalization with overlap
     ethr =  8.94E-09,  avg # of iterations =  4.4

     total cpu time spent up to now is      400.3 secs

     total energy              =    -328.81928212 Ry
     estimated scf accuracy    <       0.00000025 Ry

     iteration # 23     ecut=    60.00 Ry     beta= 0.70
     Davidson diagonalization with overlap
     ethr =  1.54E-09,  avg # of iterations =  1.8

     total cpu time spent up to now is      402.0 secs

     total energy              =    -328.81928220 Ry
     estimated scf accuracy    <       0.00000012 Ry

     iteration # 24     ecut=    60.00 Ry     beta= 0.70
     Davidson diagonalization with overlap
     ethr =  7.20E-10,  avg # of iterations =  1.4

     total cpu time spent up to now is      403.8 secs

     total energy              =    -328.81928211 Ry
     estimated scf accuracy    <       0.00000015 Ry

     iteration # 25     ecut=    60.00 Ry     beta= 0.70
     Davidson diagonalization with overlap
     ethr =  7.20E-10,  avg # of iterations =  2.0

     total cpu time spent up to now is      405.7 secs

     total energy              =    -328.81928213 Ry
     estimated scf accuracy    <       0.00000009 Ry

     iteration # 26     ecut=    60.00 Ry     beta= 0.70
     Davidson diagonalization with overlap
     ethr =  5.54E-10,  avg # of iterations =  1.0

     total cpu time spent up to now is      407.5 secs

     total energy              =    -328.81928214 Ry
     estimated scf accuracy    <          7.3E-09 Ry

     iteration # 27     ecut=    60.00 Ry     beta= 0.70
     Davidson diagonalization with overlap
     ethr =  4.54E-11,  avg # of iterations =  2.1

     total cpu time spent up to now is      409.3 secs

     total energy              =    -328.81928214 Ry
     estimated scf accuracy    <          1.7E-09 Ry

     iteration # 28     ecut=    60.00 Ry     beta= 0.70
     Davidson diagonalization with overlap
     ethr =  1.05E-11,  avg # of iterations =  1.5

     total cpu time spent up to now is      411.1 secs

     total energy              =    -328.81928214 Ry
     estimated scf accuracy    <          2.0E-10 Ry

     iteration # 29     ecut=    60.00 Ry     beta= 0.70
     Davidson diagonalization with overlap
     ethr =  1.26E-12,  avg # of iterations =  2.5

     total cpu time spent up to now is      412.9 secs

     End of self-consistent calculation

          k = 0.0000 0.0000 0.0000 (  3559 PWs)   bands (ev):

   -85.6278 -51.7610 -51.7610 -51.7610  -1.9692   0.1621   0.1621   0.1621
     0.3012   0.3012   8.8475   8.8475

          k = 0.0000-0.2615 0.2615 (  3589 PWs)   bands (ev):

   -85.6278 -51.7614 -51.7612 -51.7612  -1.2204   0.1206   0.1748   0.2724
     0.2806   0.3041   5.2467   7.4278

          k = 0.0000 0.5230-0.5230 (  3592 PWs)   bands (ev):

   -85.6278 -51.7615 -51.7613 -51.7613  -0.2291   0.0792   0.2847   0.3088
     0.3942   1.0988   1.8385   6.5655

          k =-0.2615 0.7845-0.5230 (  3586 PWs)   bands (ev):

   -85.6278 -51.7614 -51.7613 -51.7612  -0.1464   0.1220   0.1633   0.2855
     0.3137   0.7101   3.3678   4.4736

          k = 0.0000 0.0000 0.5230 (  3580 PWs)   bands (ev):

   -85.6278 -51.7615 -51.7612 -51.7612  -0.5131   0.1677   0.2166   0.2166
     0.2694   0.3553   5.4229   5.9496

          k = 0.0000 0.7845-0.2615 (  3570 PWs)   bands (ev):

   -85.6278 -51.7613 -51.7612 -51.7612   0.0362   0.1237   0.2124   0.2510
     0.3833   1.4845   2.7454   5.1004

          k = 0.5230-0.5230 0.5230 (  3604 PWs)   bands (ev):

   -85.6279 -51.7614 -51.7614 -51.7614   0.1242   0.1242   0.1242   0.3110
     0.3110   1.3970   3.7156   3.7156

          k = 0.0000 0.0000-1.0460 (  3564 PWs)   bands (ev):

   -85.6278 -51.7613 -51.7613 -51.7613   0.0139   0.0139   0.3724   0.3724
     0.3724   2.7312   4.2239   4.2239

     the Fermi energy is     0.4279 ev

!    total energy              =    -328.81928214 Ry

     total all-electron energy =     -2545.115818 Ry
     estimated scf accuracy    <          8.3E-11 Ry
     smearing contrib. (-TS)   =      -0.06173162 Ry
     internal energy E=F+TS    =    -328.75755052 Ry

     The total energy is F=E-TS. E is the sum of the following terms:
     one-electron contribution =    -236.53938603 Ry
     hartree contribution      =     118.80262455 Ry
     xc contribution           =     -34.43364171 Ry
     ewald contribution        =    -100.46338852 Ry
     one-center paw contrib.   =     -76.12375881 Ry

     convergence has been achieved in  29 iterations

     Forces acting on atoms (cartesian axes, Ry/au):

     atom    1 type  1   force =     0.00000000    0.00000000    0.00000000

     Total force =     0.000000     Total SCF correction =     0.000000


     Computing stress (Cartesian axis) and pressure

          total   stress  (Ry/bohr**3)                   (kbar)     P=      -56.41
  -0.00038347   0.00000000  -0.00000000          -56.41        0.00       -0.00
   0.00000000  -0.00038347   0.00000000            0.00      -56.41        0.00
  -0.00000000   0.00000000  -0.00038347           -0.00        0.00      -56.41

     Energy error            =      4.0E-03 Ry
     Gradient error          =      0.0E+00 Ry/Bohr
     Cell gradient error     =      5.6E+01 kbar

     number of scf cycles    =   6
     number of bfgs steps    =   5

     enthalpy           old  =    -328.8152557967 Ry
     enthalpy           new  =    -328.8192821370 Ry

     CASE: enthalpy          _new < enthalpy          _old


     WARNING: bfgs curvature condition failed, Theta= 0.759
     new trust radius        =       0.0539818096 bohr
ibrav =      3
 celldm(1) =      9.14811919
Input lattice vectors:
     0.47155254     0.47155254     0.47155254
[...]

     iteration # 14     ecut=    60.00 Ry     beta= 0.70
     Davidson diagonalization with overlap
     ethr =  1.56E-11,  avg # of iterations =  1.0

     total cpu time spent up to now is     2048.0 secs

     total energy              =    -329.24108121 Ry
     estimated scf accuracy    <          3.5E-09 Ry

     iteration # 15     ecut=    60.00 Ry     beta= 0.70
     Davidson diagonalization with overlap
     ethr =  1.56E-11,  avg # of iterations =  1.0

     total cpu time spent up to now is     2049.7 secs

     total energy              =    -329.24108121 Ry
     estimated scf accuracy    <          9.9E-10 Ry

     iteration # 16     ecut=    60.00 Ry     beta= 0.70
     Davidson diagonalization with overlap
     ethr =  6.18E-12,  avg # of iterations =  1.0

     total cpu time spent up to now is     2051.5 secs

     total energy              =    -329.24108121 Ry
     estimated scf accuracy    <          1.1E-09 Ry

     iteration # 17     ecut=    60.00 Ry     beta= 0.70
     Davidson diagonalization with overlap
     ethr =  6.18E-12,  avg # of iterations =  2.0

     total cpu time spent up to now is     2053.3 secs

     End of self-consistent calculation

          k = 0.0000 0.0000 0.0000 (  3559 PWs)   bands (ev):

   -67.2469 -33.0028 -33.0028 -33.0028  10.9023  18.1767  18.1767  18.1767
    19.9008  19.9008  45.1352  45.1352

          k = 0.0000-0.4626 0.4626 (  3589 PWs)   bands (ev):

   -67.1936 -33.2733 -33.0913 -33.0032  13.3125  17.4995  17.9257  19.5872
    19.6331  19.9887  36.4586  41.5569

          k = 0.0000 0.9252-0.9252 (  3592 PWs)   bands (ev):

   -67.1400 -33.5374 -33.1789 -33.0036  15.0150  16.8780  19.8815  20.1512
    20.1966  21.3021  28.2440  38.5364

          k =-0.4626 1.3877-0.9252 (  3586 PWs)   bands (ev):

   -67.1400 -33.4388 -33.2258 -33.0578  15.9243  16.9125  17.5191  19.7299
    20.2764  22.9993  31.6497  32.6436

          k = 0.0000 0.0000 0.9252 (  3580 PWs)   bands (ev):

   -67.1476 -33.2814 -33.1868 -33.1868  15.0605  17.5237  18.6310  18.6310
    19.5427  21.1006  37.8685  37.8685

          k = 0.0000 1.3877-0.4626 (  3570 PWs)   bands (ev):

   -67.1014 -33.4601 -33.2812 -33.1950  15.9521  16.5472  18.5635  19.3103
    21.1427  25.5640  28.5825  34.4146

          k = 0.9252-0.9252 0.9252 (  3604 PWs)   bands (ev):

   -67.1326 -33.2648 -33.2648 -33.2648  16.9050  16.9050  16.9050  20.1971
    20.1971  29.1681  29.1681  29.1681

          k = 0.0000 0.0000-1.8503 (  3564 PWs)   bands (ev):

   -67.0627 -33.3823 -33.3823 -33.3823  15.2956  15.2956  20.9858  20.9858
    20.9858  30.1730  30.1730  30.1730

     the Fermi energy is    19.8635 ev

!    total energy              =    -329.24108121 Ry

     total all-electron energy =     -2545.537617 Ry
     estimated scf accuracy    <          4.4E-11 Ry
     smearing contrib. (-TS)   =      -0.01684069 Ry
     internal energy E=F+TS    =    -329.22424052 Ry

     The total energy is F=E-TS. E is the sum of the following terms:
     one-electron contribution =    -103.86797921 Ry
     hartree contribution      =      63.27183317 Ry
     xc contribution           =     -34.75906380 Ry
     ewald contribution        =    -177.71430707 Ry
     one-center paw contrib.   =     -76.15472360 Ry

     convergence has been achieved in  17 iterations

     Forces acting on atoms (cartesian axes, Ry/au):

     atom    1 type  1   force =     0.00000000    0.00000000    0.00000000

     Total force =     0.000000     Total SCF correction =     0.000000


     Computing stress (Cartesian axis) and pressure

          total   stress  (Ry/bohr**3)                   (kbar)     P=        0.06
   0.00000043  -0.00000000   0.00000000            0.06       -0.00        0.00
  -0.00000000   0.00000043  -0.00000000           -0.00        0.06       -0.00
   0.00000000  -0.00000000   0.00000043            0.00       -0.00        0.06

     Energy error            =      2.8E-09 Ry
     Gradient error          =      0.0E+00 Ry/Bohr
     Cell gradient error     =      6.4E-02 kbar
ibrav =      3
 celldm(1) =      5.24236781
Input lattice vectors:
     0.27022514     0.27022514     0.27022514
    -0.27022514     0.27022514     0.27022514
    -0.27022514    -0.27022514     0.27022514
New lattice vectors in INITIAL alat:
     0.27022514     0.27022514     0.27022514
    -0.27022514     0.27022514     0.27022514
    -0.27022514    -0.27022514     0.27022514
New lattice vectors in NEW alat (for information only):
     0.50000000     0.50000000     0.50000000
    -0.50000000     0.50000000     0.50000000
    -0.50000000    -0.50000000     0.50000000
Discrepancy in bohr =     0.000000    0.000000    0.000000

Atomic positions rescaled with new alat:
Fe            0.0000000000        0.0000000000        0.0000000000

     bfgs converged in  29 scf cycles and  28 bfgs steps
     (criteria: energy <  1.0E-06 Ry, force <  1.0E-06Ry/Bohr, cell <  5.0E-01kbar)

     End of BFGS Geometry Optimization

     Final enthalpy           =    -329.2410812105 Ry

     File ./fe.bfgs deleted, as requested
Begin final coordinates
     new unit-cell volume =     72.03648 a.u.^3 (    10.67470 Ang^3 )
     density =      8.68715 g/cm^3

CELL_PARAMETERS (alat=  9.70000000)
   0.270225145   0.270225145   0.270225145
  -0.270225145   0.270225145   0.270225145
  -0.270225145  -0.270225145   0.270225145

ATOMIC_POSITIONS (alat)
Fe            0.0000000000        0.0000000000        0.0000000000
End final coordinates



     Writing config-only to output data dir ./fe.save/

     Final scf calculation at the relaxed structure.
     The G-vectors are recalculated for the final unit cell
     Results may differ from those at the preceding step.

     G-vector sticks info
     --------------------
     sticks:   dense  smooth     PW     G-vecs:    dense   smooth      PW
     Sum        1113     375    129                23455     4537     887

     Using Slab Decomposition



     bravais-lattice index     =            3
     lattice parameter (alat)  =       9.7000  a.u.
     unit-cell volume          =      72.0365 (a.u.)^3
     number of atoms/cell      =            1
     number of atomic types    =            1
     number of electrons       =        16.00
     number of Kohn-Sham states=           12
     kinetic-energy cutoff     =      60.0000  Ry
     charge density cutoff     =     720.0000  Ry
     scf convergence threshold =      1.0E-10
     mixing beta               =       0.7000
     number of iterations used =            8  plain     mixing
     press convergence thresh. =      5.0E-01
     Exchange-correlation= SLA  PW   PBX  PBC
                           (   1   4   3   4   0   0   0)

     celldm(1)=   9.700000  celldm(2)=   0.000000  celldm(3)=   0.000000
     celldm(4)=   0.000000  celldm(5)=   0.000000  celldm(6)=   0.000000

     crystal axes: (cart. coord. in units of alat)
               a(1) = (   0.270225   0.270225   0.270225 )  
               a(2) = (  -0.270225   0.270225   0.270225 )  
               a(3) = (  -0.270225  -0.270225   0.270225 )  

     reciprocal axes: (cart. coord. in units 2 pi/alat)
               b(1) = (  1.850309  0.000000  1.850309 )  
               b(2) = ( -1.850309  1.850309  0.000000 )  
               b(3) = (  0.000000 -1.850309  1.850309 )  


     PseudoPot. # 1 for Fe read from file:
     ./Fe.pbe-spn-kjpaw_psl.0.2.1.UPF
     MD5 check sum: e86618425769142926afa95317d90200
     Pseudo is Projector augmented-wave + core cor, Zval = 16.0
     Generated using "atomic" code by A. Dal Corso  v.5.0.99 svn rev. 10869
     Shape of augmentation charge: PSQ
     Using radial grid of 1191 points,  6 beta functions with: 
                l(1) =   0
                l(2) =   0
                l(3) =   1
                l(4) =   1
                l(5) =   2
                l(6) =   2
     Q(r) pseudized with 0 coefficients 


     atomic species   valence    mass     pseudopotential
        Fe            16.00    55.84500     Fe( 1.00)

     48 Sym. Ops., with inversion, found



   Cartesian axes

     site n.     atom                  positions (alat units)
         1           Fe  tau(   1) = (   0.0000000   0.0000000   0.0000000  )

     number of k points=     8  Methfessel-Paxton smearing, width (Ry)=  0.0600
                       cart. coord. in units 2pi/alat
        k(    1) = (   0.0000000   0.0000000   0.0000000), wk =   0.0312500
        k(    2) = (   0.0000000  -0.4625772   0.4625772), wk =   0.3750000
        k(    3) = (   0.0000000   0.9251545  -0.9251545), wk =   0.1875000
        k(    4) = (  -0.4625772   1.3877317  -0.9251545), wk =   0.7500000
        k(    5) = (   0.0000000   0.0000000   0.9251545), wk =   0.1875000
        k(    6) = (   0.0000000   1.3877317  -0.4625772), wk =   0.3750000
        k(    7) = (   0.9251545  -0.9251545   0.9251545), wk =   0.0625000
        k(    8) = (   0.0000000   0.0000000  -1.8503089), wk =   0.0312500

     Dense  grid:    23455 G-vectors     FFT dimensions: (  40,  40,  40)

     Smooth grid:     4537 G-vectors     FFT dimensions: (  24,  24,  24)

     Estimated max dynamical RAM per process >      92.47 MB

     Check: negative core charge=   -0.000031

     Initial potential from superposition of free atoms

     starting charge      15.9996, renormalised to      16.0000
     Starting wfcs are   13 randomized atomic wfcs
     Checking if some PAW data can be deallocated... 

     total cpu time spent up to now is     2069.1 secs

     Self-consistent Calculation

     iteration #  1     ecut=    60.00 Ry     beta= 0.70
     Davidson diagonalization with overlap
     ethr =  1.00E-06,  avg # of iterations = 13.2

     total cpu time spent up to now is     2069.9 secs

     total energy              =    -329.20687736 Ry
     estimated scf accuracy    <       0.04677470 Ry

     iteration #  2     ecut=    60.00 Ry     beta= 0.70
     Davidson diagonalization with overlap
     ethr =  2.92E-04,  avg # of iterations =  2.0

     total cpu time spent up to now is     2070.5 secs

     total energy              =    -329.21396941 Ry
     estimated scf accuracy    <       0.13345594 Ry

     iteration #  3     ecut=    60.00 Ry     beta= 0.70
     Davidson diagonalization with overlap
     ethr =  2.92E-04,  avg # of iterations =  2.0

     total cpu time spent up to now is     2071.1 secs

     total energy              =    -329.23239272 Ry
     estimated scf accuracy    <       0.00102541 Ry

     iteration #  4     ecut=    60.00 Ry     beta= 0.70
     Davidson diagonalization with overlap
     ethr =  6.41E-06,  avg # of iterations =  2.1

     total cpu time spent up to now is     2071.6 secs

     total energy              =    -329.23275586 Ry
     estimated scf accuracy    <       0.00065765 Ry

     iteration #  5     ecut=    60.00 Ry     beta= 0.70
     Davidson diagonalization with overlap
     ethr =  4.11E-06,  avg # of iterations =  1.6

     total cpu time spent up to now is     2072.2 secs

     total energy              =    -329.23285234 Ry
     estimated scf accuracy    <       0.00000582 Ry

     iteration #  6     ecut=    60.00 Ry     beta= 0.70
     Davidson diagonalization with overlap
     ethr =  3.64E-08,  avg # of iterations =  3.6

     total cpu time spent up to now is     2072.8 secs

     total energy              =    -329.23284435 Ry
     estimated scf accuracy    <       0.00001934 Ry

     iteration #  7     ecut=    60.00 Ry     beta= 0.70
     Davidson diagonalization with overlap
     ethr =  3.64E-08,  avg # of iterations =  2.1

     total cpu time spent up to now is     2073.4 secs

     total energy              =    -329.23284591 Ry
     estimated scf accuracy    <       0.00000071 Ry

     iteration #  8     ecut=    60.00 Ry     beta= 0.70
     Davidson diagonalization with overlap
     ethr =  4.44E-09,  avg # of iterations =  2.9

     total cpu time spent up to now is     2073.9 secs

     total energy              =    -329.23284585 Ry
     estimated scf accuracy    <       0.00000064 Ry

     iteration #  9     ecut=    60.00 Ry     beta= 0.70
     Davidson diagonalization with overlap
     ethr =  3.99E-09,  avg # of iterations =  1.0

     total cpu time spent up to now is     2074.5 secs

     total energy              =    -329.23284583 Ry
     estimated scf accuracy    <       0.00000017 Ry

     iteration # 10     ecut=    60.00 Ry     beta= 0.70
     Davidson diagonalization with overlap
     ethr =  1.06E-09,  avg # of iterations =  2.1

     total cpu time spent up to now is     2075.0 secs

     total energy              =    -329.23284590 Ry
     estimated scf accuracy    <       0.00000002 Ry

     iteration # 11     ecut=    60.00 Ry     beta= 0.70
     Davidson diagonalization with overlap
     ethr =  1.32E-10,  avg # of iterations =  4.0

     total cpu time spent up to now is     2075.6 secs

     total energy              =    -329.23284592 Ry
     estimated scf accuracy    <       0.00000029 Ry

     iteration # 12     ecut=    60.00 Ry     beta= 0.70
     Davidson diagonalization with overlap
     ethr =  1.32E-10,  avg # of iterations =  1.0

     total cpu time spent up to now is     2076.2 secs

     total energy              =    -329.23284594 Ry
     estimated scf accuracy    <       0.00000022 Ry

     iteration # 13     ecut=    60.00 Ry     beta= 0.70
     Davidson diagonalization with overlap
     ethr =  1.32E-10,  avg # of iterations =  1.0

     total cpu time spent up to now is     2076.7 secs

     total energy              =    -329.23284588 Ry
     estimated scf accuracy    <       0.00000026 Ry

     iteration # 14     ecut=    60.00 Ry     beta= 0.70
     Davidson diagonalization with overlap
     ethr =  1.32E-10,  avg # of iterations =  2.0

     total cpu time spent up to now is     2077.3 secs

     total energy              =    -329.23284587 Ry
     estimated scf accuracy    <       0.00000009 Ry

     iteration # 15     ecut=    60.00 Ry     beta= 0.70
     Davidson diagonalization with overlap
     ethr =  1.32E-10,  avg # of iterations =  1.0

     total cpu time spent up to now is     2077.9 secs

     total energy              =    -329.23284586 Ry
     estimated scf accuracy    <       0.00000006 Ry

     iteration # 16     ecut=    60.00 Ry     beta= 0.70
     Davidson diagonalization with overlap
     ethr =  1.32E-10,  avg # of iterations =  2.2

     total cpu time spent up to now is     2078.4 secs

     total energy              =    -329.23284586 Ry
     estimated scf accuracy    <          1.5E-09 Ry

     iteration # 17     ecut=    60.00 Ry     beta= 0.70
     Davidson diagonalization with overlap
     ethr =  9.13E-12,  avg # of iterations =  3.0

     total cpu time spent up to now is     2079.0 secs

     End of self-consistent calculation

          k = 0.0000 0.0000 0.0000 (   555 PWs)   bands (ev):

   -67.2393 -32.9861 -32.9861 -32.9861  10.9089  18.1844  18.1844  18.1844
    19.9088  19.9088  45.1360  45.1360

          k = 0.0000-0.4626 0.4626 (   575 PWs)   bands (ev):

   -67.1864 -33.2579 -33.0754 -32.9869  13.3242  17.5067  17.9358  19.5960
    19.6411  19.9968  36.4808  41.5743

          k = 0.0000 0.9252-0.9252 (   566 PWs)   bands (ev):

   -67.1326 -33.5221 -33.1630 -32.9873  15.0211  16.8849  19.8897  20.1595
    20.2332  21.3111  28.2546  38.5589

          k =-0.4626 1.3877-0.9252 (   564 PWs)   bands (ev):

   -67.1326 -33.4233 -33.2100 -33.0416  15.9352  16.9225  17.5323  19.7381
    20.2851  23.0168  31.6781  32.6650

          k = 0.0000 0.0000 0.9252 (   570 PWs)   bands (ev):

   -67.1403 -33.2655 -33.1711 -33.1711  15.0761  17.5301  18.6404  18.6404
    19.5509  21.1122  37.9104  37.9104

          k = 0.0000 1.3877-0.4626 (   566 PWs)   bands (ev):

   -67.0939 -33.4449 -33.2657 -33.1790  15.9596  16.5579  18.5726  19.3191
    21.1516  25.5982  28.6022  34.4617

          k = 0.9252-0.9252 0.9252 (   544 PWs)   bands (ev):

   -67.1247 -33.2485 -33.2485 -33.2485  16.9176  16.9176  16.9176  20.2055
    20.2055  29.1958  29.1958  29.1958

          k = 0.0000 0.0000-1.8503 (   586 PWs)   bands (ev):

   -67.0555 -33.3676 -33.3676 -33.3676  15.3008  15.3008  20.9945  20.9945
    20.9945  30.2214  30.2214  30.2214

     the Fermi energy is    19.8731 ev

!    total energy              =    -329.23284586 Ry

     total all-electron energy =     -2545.529381 Ry
     estimated scf accuracy    <          3.0E-11 Ry
     smearing contrib. (-TS)   =      -0.01673494 Ry
     internal energy E=F+TS    =    -329.21611092 Ry

     The total energy is F=E-TS. E is the sum of the following terms:
     one-electron contribution =    -103.86421321 Ry
     hartree contribution      =      63.27591609 Ry
     xc contribution           =     -34.76056200 Ry
     ewald contribution        =    -177.71430707 Ry
     one-center paw contrib.   =     -76.15294473 Ry

     convergence has been achieved in  17 iterations

     Forces acting on atoms (cartesian axes, Ry/au):

     atom    1 type  1   force =     0.00000000    0.00000000    0.00000000

     Total force =     0.000000     Total SCF correction =     0.000000


     Computing stress (Cartesian axis) and pressure

          total   stress  (Ry/bohr**3)                   (kbar)     P=      -12.26
  -0.00008331  -0.00000000   0.00000000          -12.26       -0.00        0.00
  -0.00000000  -0.00008331  -0.00000000           -0.00      -12.26       -0.00
   0.00000000  -0.00000000  -0.00008331            0.00       -0.00      -12.26


     Writing all to output data dir ./fe.save/

     init_run     :     11.75s CPU     12.02s WALL (       2 calls)
     electrons    :   1311.61s CPU   1401.77s WALL (      30 calls)
     update_pot   :    278.98s CPU    281.20s WALL (      28 calls)
     forces       :    160.04s CPU    163.12s WALL (      30 calls)
     stress       :    200.92s CPU    203.51s WALL (      30 calls)

     Called by init_run:
     wfcinit      :      0.24s CPU      0.26s WALL (       2 calls)
     potinit      :      4.82s CPU      4.87s WALL (       2 calls)
     hinit0       :      6.22s CPU      6.33s WALL (       2 calls)

     Called by electrons:
     c_bands      :    402.80s CPU    420.70s WALL (     759 calls)
     sum_band     :    363.84s CPU    392.41s WALL (     759 calls)
     v_of_rho     :     96.96s CPU    101.54s WALL (     788 calls)
     newd         :    197.21s CPU    234.89s WALL (     788 calls)
     PAW_pot      :    266.67s CPU    269.06s WALL (     816 calls)
     mix_rho      :      8.91s CPU      9.35s WALL (     759 calls)

     Called by c_bands:
     init_us_2    :     13.17s CPU     14.12s WALL (   12864 calls)
     init_us_2:cp :     13.15s CPU     14.10s WALL (   12864 calls)
     cegterg      :    347.20s CPU    364.45s WALL (    6072 calls)

     Called by *egterg:
     cdiaghg      :      2.15s CPU      2.17s WALL (   21187 calls)
     h_psi        :    310.60s CPU    317.02s WALL (   21435 calls)
     s_psi        :      3.37s CPU      4.70s WALL (   21435 calls)
     g_psi        :      3.57s CPU      3.59s WALL (   15347 calls)

     Called by h_psi:
     h_psi:calbec :      4.98s CPU      7.98s WALL (   21435 calls)
     vloc_psi     :    301.06s CPU    302.44s WALL (   21435 calls)
     add_vuspsi   :      3.54s CPU      5.32s WALL (   21435 calls)

     General routines
     calbec       :      6.87s CPU     11.06s WALL (   28931 calls)
     fft          :     28.07s CPU     28.20s WALL (   10963 calls)
     ffts         :      1.17s CPU      1.18s WALL (    1547 calls)
     fftw         :    203.15s CPU    204.06s WALL (  458468 calls)
     interpolate  :      3.20s CPU      3.65s WALL (     788 calls)

     Parallel routines

     PWSCF        :  33m 0.68s CPU  34m41.01s WALL


   This run was terminated on:  16:18:27  19Mar2022            

=------------------------------------------------------------------------------=
   JOB DONE.
=------------------------------------------------------------------------------=
