
     Program PWSCF v.7.0 starts on 20Mar2022 at  9:25:30 

     This program is part of the open-source Quantum ESPRESSO suite
     for quantum simulation of materials; please cite
         "P. Giannozzi et al., J. Phys.:Condens. Matter 21 395502 (2009);
         "P. Giannozzi et al., J. Phys.:Condens. Matter 29 465901 (2017);
         "P. Giannozzi et al., J. Chem. Phys. 152 154105 (2020);
          URL http://www.quantum-espresso.org", 
     in publications or presentations arising from this work. More details at
     http://www.quantum-espresso.org/quote

     Parallel version (MPI), running on     1 processors

     MPI processes distributed on     1 nodes
     0 MiB available memory on the printing compute node when the environment starts

     Reading input from Fe.vc-relax.bcc.in

     Current dimensions of program PWSCF are:
     Max number of different atomic species (ntypx) = 10
     Max number of k-points (npk) =  40000
     Max angular momentum in pseudopotentials (lmaxx) =  4

     File /tmp/Fe.update deleted, as requested

     File /tmp/Fe.bfgs deleted, as requested

     Subspace diagonalization in iterative solution of the eigenvalue problem:
     a serial algorithm will be used


     G-vector sticks info
     --------------------
     sticks:   dense  smooth     PW     G-vecs:    dense   smooth      PW
     Sum         311     159     67                 3511     1253     369

     Using Slab Decomposition



     bravais-lattice index     =            3
     lattice parameter (alat)  =       4.8000  a.u.
     unit-cell volume          =      55.2960 (a.u.)^3
     number of atoms/cell      =            1
     number of atomic types    =            1
     number of electrons       =        16.00
     number of Kohn-Sham states=           12
     kinetic-energy cutoff     =      30.0000  Ry
     charge density cutoff     =     240.0000  Ry
     scf convergence threshold =      1.0E-10
     mixing beta               =       0.7000
     number of iterations used =            8  plain     mixing
     energy convergence thresh.=      1.0E-04
     force convergence thresh. =      1.0E-03
     press convergence thresh. =      5.0E-01
     Exchange-correlation= PBE
                           (   1   4   3   4   0   0   0)
     nstep                     =           50


     celldm(1)=   4.800000  celldm(2)=   0.000000  celldm(3)=   0.000000
     celldm(4)=   0.000000  celldm(5)=   0.000000  celldm(6)=   0.000000

     crystal axes: (cart. coord. in units of alat)
               a(1) = (   0.500000   0.500000   0.500000 )  
               a(2) = (  -0.500000   0.500000   0.500000 )  
               a(3) = (  -0.500000  -0.500000   0.500000 )  

     reciprocal axes: (cart. coord. in units 2 pi/alat)
               b(1) = (  1.000000  0.000000  1.000000 )  
               b(2) = ( -1.000000  1.000000  0.000000 )  
               b(3) = (  0.000000 -1.000000  1.000000 )  


     PseudoPot. # 1 for Fe read from file:
     ./Fe.pbe-spn-rrkjus_psl.1.0.0.UPF
     MD5 check sum: 72ea77fed8e64ab3a2ccf2804dfc1862
     Pseudo is Ultrasoft + core correction, Zval = 16.0
     Generated using &quot;atomic&quot; code by A. Dal Corso  v.6.3
     Using radial grid of 1191 points,  6 beta functions with: 
                l(1) =   0
                l(2) =   0
                l(3) =   1
                l(4) =   1
                l(5) =   2
                l(6) =   2
     Q(r) pseudized with 0 coefficients 


     atomic species   valence    mass     pseudopotential
        Fe            16.00    55.84500     Fe( 1.00)

     Starting magnetic structure 
     atomic species   magnetization
        Fe           0.600

     48 Sym. Ops., with inversion, found



   Cartesian axes

     site n.     atom                  positions (alat units)
         1           Fe  tau(   1) = (   0.0000000   0.0000000   0.0000000  )

     number of k points=    38  Methfessel-Paxton smearing, width (Ry)=  0.0300
                       cart. coord. in units 2pi/alat
        k(    1) = (   0.0000000  -0.0416667   0.2083333), wk =   0.0277778
        k(    2) = (   0.0000000  -0.2916667   0.4583333), wk =   0.0277778
        k(    3) = (  -0.1666667   0.1250000   0.2083333), wk =   0.0277778
        k(    4) = (  -0.1666667  -0.1250000   0.4583333), wk =   0.0277778
        k(    5) = (  -0.1666667   0.6250000  -0.2916667), wk =   0.0277778
        k(    6) = (  -0.1666667   0.3750000  -0.0416667), wk =   0.0277778
        k(    7) = (  -0.3333333   0.2916667   0.2083333), wk =   0.0277778
        k(    8) = (  -0.3333333   0.0416667   0.4583333), wk =   0.0277778
        k(    9) = (  -0.3333333   0.7916667  -0.2916667), wk =   0.0277778
        k(   10) = (  -0.3333333   0.5416667  -0.0416667), wk =   0.0277778
        k(   11) = (   0.5000000  -0.5416667   0.2083333), wk =   0.0555556
        k(   12) = (   0.5000000  -0.0416667  -0.2916667), wk =   0.0555556
        k(   13) = (   0.3333333  -0.3750000   0.2083333), wk =   0.0277778
        k(   14) = (   0.3333333  -0.6250000   0.4583333), wk =   0.0277778
        k(   15) = (   0.3333333   0.1250000  -0.2916667), wk =   0.0277778
        k(   16) = (   0.3333333  -0.1250000  -0.0416667), wk =   0.0277778
        k(   17) = (   0.1666667  -0.2083333   0.2083333), wk =   0.0138889
        k(   18) = (   0.1666667  -0.4583333   0.4583333), wk =   0.0138889
        k(   19) = (   0.1666667   0.2916667  -0.2916667), wk =   0.0138889
        k(   20) = (   0.1666667   0.0416667  -0.0416667), wk =   0.0138889
        k(   21) = (   0.0000000   0.1250000   0.3750000), wk =   0.0277778
        k(   22) = (   0.0000000  -0.1250000   0.6250000), wk =   0.0277778
        k(   23) = (  -0.1666667   0.2916667   0.3750000), wk =   0.0277778
        k(   24) = (  -0.1666667   0.0416667   0.6250000), wk =   0.0277778
        k(   25) = (  -0.1666667   0.7916667  -0.1250000), wk =   0.0277778
        k(   26) = (  -0.1666667   0.5416667   0.1250000), wk =   0.0277778
        k(   27) = (   0.6666667  -0.5416667   0.3750000), wk =   0.0277778
        k(   28) = (   0.6666667  -0.7916667   0.6250000), wk =   0.0277778
        k(   29) = (   0.6666667  -0.0416667  -0.1250000), wk =   0.0277778
        k(   30) = (   0.6666667  -0.2916667   0.1250000), wk =   0.0277778
        k(   31) = (   0.5000000  -0.3750000   0.3750000), wk =   0.0277778
        k(   32) = (   0.5000000   0.1250000  -0.1250000), wk =   0.0277778
        k(   33) = (   0.0000000   0.2916667   0.5416667), wk =   0.0277778
        k(   34) = (   0.0000000   0.0416667   0.7916667), wk =   0.0277778
        k(   35) = (   0.8333333  -0.5416667   0.5416667), wk =   0.0138889
        k(   36) = (   0.8333333  -0.7916667   0.7916667), wk =   0.0138889
        k(   37) = (   0.8333333  -0.0416667   0.0416667), wk =   0.0138889
        k(   38) = (   0.8333333  -0.2916667   0.2916667), wk =   0.0138889

     Dense  grid:     3511 G-vectors     FFT dimensions: (  24,  24,  24)

     Smooth grid:     1253 G-vectors     FFT dimensions: (  15,  15,  15)

     Estimated max dynamical RAM per process >      19.53 MB

     Check: negative core charge=   -0.000020
     Generating pointlists ...
     new r_m :   0.3572 (alat units)  1.7147 (a.u.) for type    1

     Initial potential from superposition of free atoms

     starting charge      15.9996, renormalised to      16.0000
     Starting wfcs are   10 randomized atomic wfcs +    2 random wfcs

     total cpu time spent up to now is        1.3 secs

     Self-consistent Calculation

     iteration #  1     ecut=    30.00 Ry     beta= 0.70
     Davidson diagonalization with overlap
     ethr =  1.00E-02,  avg # of iterations =  4.4

     negative rho (up, down):  3.410E-04 2.304E-03

     total cpu time spent up to now is        1.6 secs

     total energy              =    -245.13210985 Ry
     estimated scf accuracy    <       1.92938694 Ry

     total magnetization       =     3.13 Bohr mag/cell
     absolute magnetization    =     3.15 Bohr mag/cell

     iteration #  2     ecut=    30.00 Ry     beta= 0.70
     Davidson diagonalization with overlap
     ethr =  1.00E-02,  avg # of iterations =  2.0

     negative rho (up, down):  0.000E+00 1.363E-03

     total cpu time spent up to now is        1.8 secs

     total energy              =    -245.32592413 Ry
     estimated scf accuracy    <       0.73477366 Ry

     total magnetization       =     2.61 Bohr mag/cell
     absolute magnetization    =     2.65 Bohr mag/cell

     iteration #  3     ecut=    30.00 Ry     beta= 0.70
     Davidson diagonalization with overlap
     ethr =  4.59E-03,  avg # of iterations =  2.0

     negative rho (up, down):  3.165E-04 1.745E-03

     total cpu time spent up to now is        2.1 secs

     total energy              =    -245.56926782 Ry
     estimated scf accuracy    <       0.24288460 Ry

     total magnetization       =     2.15 Bohr mag/cell
     absolute magnetization    =     2.20 Bohr mag/cell

     iteration #  4     ecut=    30.00 Ry     beta= 0.70
     Davidson diagonalization with overlap
     ethr =  1.52E-03,  avg # of iterations =  1.5

     negative rho (up, down):  5.240E-04 1.489E-03

     total cpu time spent up to now is        2.3 secs

     total energy              =    -245.61516222 Ry
     estimated scf accuracy    <       0.00755810 Ry

     total magnetization       =     1.57 Bohr mag/cell
     absolute magnetization    =     1.62 Bohr mag/cell

     iteration #  5     ecut=    30.00 Ry     beta= 0.70
     Davidson diagonalization with overlap
     ethr =  4.72E-05,  avg # of iterations =  1.8

     negative rho (up, down):  5.867E-04 1.402E-03

     total cpu time spent up to now is        2.6 secs

     total energy              =    -245.62287081 Ry
     estimated scf accuracy    <       0.00056663 Ry

     total magnetization       =     1.22 Bohr mag/cell
     absolute magnetization    =     1.26 Bohr mag/cell

     iteration #  6     ecut=    30.00 Ry     beta= 0.70
     Davidson diagonalization with overlap
     ethr =  3.54E-06,  avg # of iterations =  1.8

     negative rho (up, down):  6.370E-04 1.351E-03

     total cpu time spent up to now is        2.8 secs

     total energy              =    -245.62303815 Ry
     estimated scf accuracy    <       0.00008266 Ry

     total magnetization       =     1.23 Bohr mag/cell
     absolute magnetization    =     1.26 Bohr mag/cell

     iteration #  7     ecut=    30.00 Ry     beta= 0.70
     Davidson diagonalization with overlap
     ethr =  5.17E-07,  avg # of iterations =  1.9

     negative rho (up, down):  6.341E-04 1.352E-03

     total cpu time spent up to now is        3.0 secs

     total energy              =    -245.62310386 Ry
     estimated scf accuracy    <       0.00000148 Ry

     total magnetization       =     1.21 Bohr mag/cell
     absolute magnetization    =     1.23 Bohr mag/cell

     iteration #  8     ecut=    30.00 Ry     beta= 0.70
     Davidson diagonalization with overlap
     ethr =  9.24E-09,  avg # of iterations =  1.6

     negative rho (up, down):  6.362E-04 1.350E-03

     total cpu time spent up to now is        3.3 secs

     total energy              =    -245.62310592 Ry
     estimated scf accuracy    <       0.00000082 Ry

     total magnetization       =     1.22 Bohr mag/cell
     absolute magnetization    =     1.24 Bohr mag/cell

     iteration #  9     ecut=    30.00 Ry     beta= 0.70
     Davidson diagonalization with overlap
     ethr =  5.12E-09,  avg # of iterations =  1.6

     negative rho (up, down):  6.360E-04 1.350E-03

     total cpu time spent up to now is        3.5 secs

     total energy              =    -245.62310648 Ry
     estimated scf accuracy    <       0.00000002 Ry

     total magnetization       =     1.21 Bohr mag/cell
     absolute magnetization    =     1.24 Bohr mag/cell

     iteration # 10     ecut=    30.00 Ry     beta= 0.70
     Davidson diagonalization with overlap
     ethr =  9.57E-11,  avg # of iterations =  1.9

     negative rho (up, down):  6.360E-04 1.350E-03

     total cpu time spent up to now is        3.7 secs

     total energy              =    -245.62310649 Ry
     estimated scf accuracy    <          2.3E-10 Ry

     total magnetization       =     1.21 Bohr mag/cell
     absolute magnetization    =     1.24 Bohr mag/cell

     iteration # 11     ecut=    30.00 Ry     beta= 0.70
     Davidson diagonalization with overlap
     ethr =  1.47E-12,  avg # of iterations =  1.9

     negative rho (up, down):  6.360E-04 1.350E-03

     total cpu time spent up to now is        4.0 secs

     total energy              =    -245.62310649 Ry
     estimated scf accuracy    <          1.3E-10 Ry

     total magnetization       =     1.21 Bohr mag/cell
     absolute magnetization    =     1.24 Bohr mag/cell

     iteration # 12     ecut=    30.00 Ry     beta= 0.70
     Davidson diagonalization with overlap
     ethr =  8.29E-13,  avg # of iterations =  1.6

     negative rho (up, down):  6.360E-04 1.350E-03

     Magnetic moment per site  (integrated on atomic sphere of radius R)
     atom   1 (R=0.357)  charge= 13.9883  magn=  1.2105

     total cpu time spent up to now is        4.2 secs

     End of self-consistent calculation

 ------ SPIN UP ------------


          k = 0.0000-0.0417 0.2083 (   150 PWs)   bands (ev):

   -64.1747 -28.3053 -27.9106 -27.6749  18.0506  24.7748  24.8842  26.2163
    27.5770  28.4382  51.6296  54.2564

          k = 0.0000-0.2917 0.4583 (   153 PWs)   bands (ev):

   -64.0020 -28.6132 -28.3769 -28.2289  21.4002  23.4360  25.0607  26.8876
    28.4530  29.3416  41.9283  48.7947

          k =-0.1667 0.1250 0.2083 (   154 PWs)   bands (ev):

   -64.1601 -28.5472 -28.1021 -28.0043  18.9795  24.2084  24.2811  26.7329
    27.1819  27.6777  49.3799  50.6951

          k =-0.1667-0.1250 0.4583 (   156 PWs)   bands (ev):

   -64.0331 -28.9864 -28.3422 -28.2209  21.5589  23.1985  24.3235  26.5751
    27.3385  29.6408  44.2035  46.4460

          k =-0.1667 0.6250-0.2917 (   152 PWs)   bands (ev):

   -63.9314 -28.6921 -28.4962 -28.2322  22.6570  23.3939  24.1263  27.2629
    28.5507  33.6921  39.2521  42.9865

          k =-0.1667 0.3750-0.0417 (   160 PWs)   bands (ev):

   -64.1195 -29.0742 -28.4168 -28.3501  20.3580  23.6159  23.9878  26.1903
    27.0737  27.2207  45.8582  49.9688

          k =-0.3333 0.2917 0.2083 (   156 PWs)   bands (ev):

   -64.0594 -28.7948 -28.4063 -28.3043  21.5539  22.8882  23.4133  27.0523
    27.4378  30.4333  43.9478  46.2386

          k =-0.3333 0.0417 0.4583 (   154 PWs)   bands (ev):

   -64.0030 -28.8032 -28.3309 -28.2425  21.3899  23.1140  25.3776  27.3784
    28.0161  29.4766  41.0284  48.2116

          k =-0.3333 0.7917-0.2917 (   151 PWs)   bands (ev):

   -63.9204 -28.6909 -28.4486 -28.2472  22.8214  23.5995  23.7957  27.9292
    28.3344  34.8771  38.5943  41.7170

          k =-0.3333 0.5417-0.0417 (   155 PWs)   bands (ev):

   -63.9759 -28.8632 -28.5205 -28.2416  21.6000  23.4440  24.9111  26.4305
    29.2608  30.2116  39.6982  47.6677

          k = 0.5000-0.5417 0.2083 (   155 PWs)   bands (ev):

   -63.9894 -28.8108 -28.5409 -28.4621  21.9579  22.4093  25.5214  27.1353
    27.5521  32.7531  38.9648  44.6780

          k = 0.5000-0.0417-0.2917 (   155 PWs)   bands (ev):

   -63.9941 -28.7880 -28.5138 -28.2556  21.5706  23.5026  24.7373  26.3895
    28.8119  29.6048  41.0650  48.0319

          k = 0.3333-0.3750 0.2083 (   155 PWs)   bands (ev):

   -64.0280 -28.8100 -28.3816 -28.3208  21.6869  22.8278  23.9088  27.1419
    27.5820  31.6394  42.1700  45.6386

          k = 0.3333-0.6250 0.4583 (   152 PWs)   bands (ev):

   -63.9664 -28.6484 -28.4665 -28.4100  22.4393  23.6191  24.3573  27.3912
    27.6144  35.3487  38.8191  41.4717

          k = 0.3333 0.1250-0.2917 (   157 PWs)   bands (ev):

   -64.0799 -28.8470 -28.3724 -28.3190  20.8791  23.0372  24.1224  26.9250
    27.2871  28.9439  43.9372  48.1334

          k = 0.3333-0.1250-0.0417 (   155 PWs)   bands (ev):

   -64.1206 -28.8373 -28.1001 -28.0711  19.7886  24.1284  24.4192  26.7306
    26.8338  27.6281  47.8657  50.9541

          k = 0.1667-0.2083 0.2083 (   153 PWs)   bands (ev):

   -64.1272 -28.5478 -28.0523 -28.0153  19.5907  24.0357  24.0654  27.2173
    27.7147  27.7300  48.5151  49.3311

          k = 0.1667-0.4583 0.4583 (   157 PWs)   bands (ev):

   -64.0063 -28.9253 -28.5587 -28.5131  21.6667  22.2502  25.6902  26.7387
    27.5489  31.7513  39.1692  45.7207

          k = 0.1667 0.2917-0.2917 (   158 PWs)   bands (ev):

   -64.0956 -29.0221 -28.3358 -28.2551  20.9053  23.0396  23.5845  26.8814
    27.5815  28.4560  44.7533  47.6128

          k = 0.1667 0.0417-0.0417 (   153 PWs)   bands (ev):

   -64.2104 -28.4018 -27.9209 -27.8934  17.6926  24.6998  24.8297  25.9348
    27.4912  27.5080  52.1960  54.1523

          k = 0.0000 0.1250 0.3750 (   157 PWs)   bands (ev):

   -64.1073 -28.9584 -28.2668 -28.1650  20.2421  24.1824  24.2919  26.3781
    26.7207  27.4170  47.1754  50.9361

          k = 0.0000-0.1250 0.6250 (   149 PWs)   bands (ev):

   -63.8910 -28.4010 -28.3496 -28.1543  22.1586  22.9445  26.2660  27.1940
    29.5023  31.8777  42.8725  46.1770

          k =-0.1667 0.2917 0.3750 (   156 PWs)   bands (ev):

   -64.0490 -28.7967 -28.4133 -28.3007  21.4376  22.8379  23.9891  26.9939
    27.5219  30.1580  43.1053  46.6695

          k =-0.1667 0.0417 0.6250 (   150 PWs)   bands (ev):

   -63.8996 -28.5523 -28.3188 -28.1787  22.2906  23.4606  25.4663  26.9652
    29.3178  32.0121  41.7727  45.7561

          k =-0.1667 0.7917-0.1250 (   147 PWs)   bands (ev):

   -63.8215 -28.4711 -28.2619 -28.1621  22.6615  22.7228  26.1417  28.7191
    29.8346  36.6176  39.0647  41.1364

          k =-0.1667 0.5417 0.1250 (   152 PWs)   bands (ev):

   -63.9585 -28.7197 -28.3076 -28.1807  22.2767  23.4811  24.4857  26.6935
    28.2653  31.4035  42.9315  45.0061

          k = 0.6667-0.5417 0.3750 (   152 PWs)   bands (ev):

   -63.9789 -28.7158 -28.4200 -28.3682  22.7380  23.5511  24.1037  27.4107
    27.4643  34.0279  40.3831  42.2773

          k = 0.6667-0.7917 0.6250 (   153 PWs)   bands (ev):

   -63.9467 -28.7647 -28.5233 -28.3103  22.2682  23.6469  24.1750  27.2442
    28.1175  34.1353  38.6448  42.4118

          k = 0.6667-0.0417-0.1250 (   149 PWs)   bands (ev):

   -63.8691 -28.3935 -28.3644 -28.2503  22.1684  22.6704  26.3079  27.5007
    29.8307  32.8865  42.1370  44.6339

          k = 0.6667-0.2917 0.1250 (   151 PWs)   bands (ev):

   -63.9090 -28.6958 -28.3627 -28.2169  22.6532  23.8490  23.9951  27.4010
    29.1563  33.7414  38.8458  43.5479

          k = 0.5000-0.3750 0.3750 (   151 PWs)   bands (ev):

   -63.9653 -28.5411 -28.4852 -28.3993  22.7888  23.6271  24.3219  27.4466
    27.4639  35.5162  39.4386  41.4642

          k = 0.5000 0.1250-0.1250 (   155 PWs)   bands (ev):

   -64.0058 -28.8275 -28.3482 -28.3281  21.8554  23.2510  24.4798  26.4313
    27.7420  30.0280  44.2777  45.9889

          k = 0.0000 0.2917 0.5417 (   156 PWs)   bands (ev):

   -63.9841 -28.8981 -28.5591 -28.3092  21.6786  23.6541  24.4465  26.2165
    29.2831  29.7546  40.2587  48.3787

          k = 0.0000 0.0417 0.7917 (   147 PWs)   bands (ev):

   -63.7854 -28.4632 -28.3562 -28.0379  21.0092  21.7245  29.4329  29.7804
    30.3233  35.4835  41.7821  42.1517

          k = 0.8333-0.5417 0.5417 (   154 PWs)   bands (ev):

   -63.9787 -28.7883 -28.5120 -28.3239  21.7632  22.6378  25.9077  27.4329
    27.5479  32.2644  38.8353  45.3203

          k = 0.8333-0.7917 0.7917 (   148 PWs)   bands (ev):

   -63.8483 -28.5524 -28.3448 -28.1724  22.9088  22.9300  25.3824  28.7418
    28.9782  36.8752  38.3473  40.8924

          k = 0.8333-0.0417 0.0417 (   148 PWs)   bands (ev):

   -63.7751 -28.6270 -28.3597 -28.0044  20.9952  21.6831  29.4655  29.8124
    30.2289  36.6456  40.9578  41.0965

          k = 0.8333-0.2917 0.2917 (   150 PWs)   bands (ev):

   -63.8997 -28.7042 -28.3456 -28.1894  22.9145  23.5868  24.1550  27.7803
    28.9841  34.8093  38.4801  42.1528

 ------ SPIN DOWN ----------


          k = 0.0000-0.0417 0.2083 (   150 PWs)   bands (ev):

   -62.6529 -26.8027 -26.4014 -26.1625  18.2211  25.7265  25.8197  27.1766
    29.3452  30.3072  51.9141  54.3967

          k = 0.0000-0.2917 0.4583 (   153 PWs)   bands (ev):

   -62.4674 -27.1496 -26.8682 -26.7288  21.9213  24.3052  26.0379  28.3917
    29.9700  30.4326  42.6586  49.0492

          k =-0.1667 0.1250 0.2083 (   154 PWs)   bands (ev):

   -62.6331 -27.0552 -26.5900 -26.4942  19.1652  25.1449  25.2445  27.7820
    28.9256  29.4867  49.7520  50.9930

          k =-0.1667-0.1250 0.4583 (   156 PWs)   bands (ev):

   -62.4997 -27.5100 -26.8413 -26.7182  21.9789  24.2280  25.1912  28.0160
    28.8538  30.8910  44.8224  46.8553

          k =-0.1667 0.6250-0.2917 (   152 PWs)   bands (ev):

   -62.3946 -27.2266 -26.9989 -26.7408  23.3892  24.3749  25.0895  28.6461
    29.8468  34.6600  40.0547  43.4562

          k =-0.1667 0.3750-0.0417 (   160 PWs)   bands (ev):

   -62.5875 -27.5907 -26.9096 -26.8420  20.6653  24.6192  24.9159  27.6387
    28.1866  29.0646  46.3905  50.2818

          k =-0.3333 0.2917 0.2083 (   156 PWs)   bands (ev):

   -62.5257 -27.3258 -26.8968 -26.7984  21.9137  23.7819  24.2471  28.8729
    29.1770  31.4584  44.4892  46.6310

          k =-0.3333 0.0417 0.4583 (   154 PWs)   bands (ev):

   -62.4681 -27.3450 -26.8187 -26.7411  21.9712  23.9830  26.2695  28.9550
    29.4796  30.5918  41.7843  48.4574

          k =-0.3333 0.7917-0.2917 (   151 PWs)   bands (ev):

   -62.3833 -27.2277 -26.9501 -26.7575  23.5848  24.5974  24.7732  29.2502
    29.6434  35.7858  39.4221  42.2067

          k =-0.3333 0.5417-0.0417 (   155 PWs)   bands (ev):

   -62.4400 -27.4040 -27.0128 -26.7439  22.2808  24.3067  25.8945  27.9745
    30.5382  31.2828  40.5024  47.9922

          k = 0.5000-0.5417 0.2083 (   155 PWs)   bands (ev):

   -62.4525 -27.3525 -27.0480 -26.9491  22.6838  23.2362  26.0620  29.0400
    29.2460  33.5994  39.7577  45.0497

          k = 0.5000-0.0417-0.2917 (   155 PWs)   bands (ev):

   -62.4589 -27.3235 -27.0077 -26.7567  22.1646  24.3729  25.7291  27.9216
    30.1303  30.7575  41.8114  48.3592

          k = 0.3333-0.3750 0.2083 (   155 PWs)   bands (ev):

   -62.4931 -27.3470 -26.8727 -26.8170  22.2330  23.6980  24.5645  28.9762
    29.3442  32.6217  42.7643  46.0285

          k = 0.3333-0.6250 0.4583 (   152 PWs)   bands (ev):

   -62.4286 -27.1814 -26.9777 -26.9080  23.1929  24.3729  25.0064  29.1836
    29.3899  36.1601  39.5308  41.9752

          k = 0.3333 0.1250-0.2917 (   157 PWs)   bands (ev):

   -62.5472 -27.3762 -26.8665 -26.8063  21.2516  23.9298  24.9327  28.7651
    29.0045  29.9620  44.5172  48.4404

          k = 0.3333-0.1250-0.0417 (   155 PWs)   bands (ev):

   -62.5925 -27.3482 -26.5934 -26.5629  20.0156  25.1161  25.3341  27.8372
    28.3186  29.5162  48.3581  51.2578

          k = 0.1667-0.2083 0.2083 (   153 PWs)   bands (ev):

   -62.6000 -27.0623 -26.5399 -26.5069  19.7856  24.9489  25.0101  28.3557
    29.3680  29.5429  48.9194  49.6870

          k = 0.1667-0.4583 0.4583 (   157 PWs)   bands (ev):

   -62.4696 -27.4712 -27.0602 -26.9975  22.3730  23.1002  26.1858  28.6960
    29.2141  32.6331  39.9596  46.0404

          k = 0.1667 0.2917-0.2917 (   158 PWs)   bands (ev):

   -62.5644 -27.5466 -26.8248 -26.7479  21.2161  23.9385  24.4383  28.7620
    29.2099  29.5683  45.2780  47.9605

          k = 0.1667 0.0417-0.0417 (   153 PWs)   bands (ev):

   -62.6871 -26.8948 -26.4084 -26.3823  17.8597  25.6656  25.7742  26.8970
    29.2794  29.4081  52.4118  54.2707

          k = 0.0000 0.1250 0.3750 (   157 PWs)   bands (ev):

   -62.5776 -27.4737 -26.7591 -26.6585  20.5110  25.0923  25.3018  27.7505
    27.8626  29.3000  47.7094  51.2494

          k = 0.0000-0.1250 0.6250 (   149 PWs)   bands (ev):

   -62.3523 -26.9279 -26.8644 -26.6645  23.0215  24.1539  27.1668  28.1961
    30.5818  33.0359  43.5109  46.5930

          k =-0.1667 0.2917 0.3750 (   156 PWs)   bands (ev):

   -62.5155 -27.3292 -26.9076 -26.7917  21.8721  23.7345  24.7395  28.7967
    29.2581  31.1714  43.7039  47.0325

          k =-0.1667 0.0417 0.6250 (   150 PWs)   bands (ev):

   -62.3627 -27.0833 -26.8283 -26.6884  23.1389  24.5971  26.3818  28.0443
    30.4231  33.1480  42.4495  46.2093

          k =-0.1667 0.7917-0.1250 (   147 PWs)   bands (ev):

   -62.2833 -27.0016 -26.7865 -26.6748  23.7316  23.8340  27.0243  29.7751
    30.9431  37.3883  39.7584  41.5973

          k =-0.1667 0.5417 0.1250 (   152 PWs)   bands (ev):

   -62.4227 -27.2436 -26.8147 -26.6869  22.8629  24.5529  25.4384  27.9633
    29.6058  32.5592  43.6189  45.4552

          k = 0.6667-0.5417 0.3750 (   152 PWs)   bands (ev):

   -62.4418 -27.2482 -26.9261 -26.8694  23.4673  24.2822  24.6791  29.2283
    29.3583  34.8827  41.0278  42.7816

          k = 0.6667-0.7917 0.6250 (   153 PWs)   bands (ev):

   -62.4096 -27.3027 -27.0145 -26.8248  23.0182  24.5591  25.0940  28.7148
    29.5333  35.0390  39.4560  42.8903

          k = 0.6667-0.0417-0.1250 (   149 PWs)   bands (ev):

   -62.3294 -26.9130 -26.8894 -26.7630  23.1700  23.8183  27.2231  28.4908
    30.9194  33.9094  42.7733  45.0740

          k = 0.6667-0.2917 0.1250 (   151 PWs)   bands (ev):

   -62.3727 -27.2338 -26.8645 -26.7268  23.4849  24.8278  24.9635  28.6788
    30.3734  34.7059  39.6533  44.0204

          k = 0.5000-0.3750 0.3750 (   151 PWs)   bands (ev):

   -62.4274 -27.0686 -26.9976 -26.9023  23.5364  24.3621  24.8790  29.2783
    29.3529  36.3297  40.1042  41.9879

          k = 0.5000 0.1250-0.1250 (   155 PWs)   bands (ev):

   -62.4707 -27.3512 -26.8466 -26.8332  22.3225  24.4129  25.4263  27.6884
    29.0599  31.3393  44.9258  46.4017

          k = 0.0000 0.2917 0.5417 (   156 PWs)   bands (ev):

   -62.4484 -27.4378 -27.0517 -26.8107  22.3465  24.5256  25.4833  27.7090
    30.4039  30.9872  41.0234  48.7068

          k = 0.0000 0.0417 0.7917 (   147 PWs)   bands (ev):

   -62.2398 -26.9868 -26.8804 -26.5653  22.2597  22.8196  30.4177  30.7394
    31.4094  36.1365  42.2052  42.5255

          k = 0.8333-0.5417 0.5417 (   154 PWs)   bands (ev):

   -62.4426 -27.3343 -27.0120 -26.8148  22.4878  23.4780  26.4669  29.1948
    29.2446  33.1744  39.6585  45.6664

          k = 0.8333-0.7917 0.7917 (   148 PWs)   bands (ev):

   -62.3108 -27.0826 -26.8714 -26.6789  23.9892  23.9989  26.2248  29.8417
    30.1146  37.6886  39.1247  41.3694

          k = 0.8333-0.0417 0.0417 (   148 PWs)   bands (ev):

   -62.2303 -27.1504 -26.8858 -26.5320  22.2171  22.7993  30.4628  30.9200
    31.2270  37.2060  41.3704  41.4491

          k = 0.8333-0.2917 0.2917 (   150 PWs)   bands (ev):

   -62.3631 -27.2401 -26.8611 -26.6906  23.7803  24.5859  25.0992  29.0128
    30.2284  35.7234  39.2917  42.6532

     the Fermi energy is    28.2241 ev

!    total energy              =    -245.62310649 Ry
     estimated scf accuracy    <          4.1E-12 Ry
     smearing contrib. (-TS)   =       0.00090797 Ry
     internal energy E=F+TS    =    -245.62401446 Ry

     The total energy is F=E-TS. E is the sum of the following terms:
     one-electron contribution =     -75.36735493 Ry
     hartree contribution      =      51.58120403 Ry
     xc contribution           =     -27.74541289 Ry
     ewald contribution        =    -194.09245066 Ry

     total magnetization       =     1.21 Bohr mag/cell
     absolute magnetization    =     1.24 Bohr mag/cell

     convergence has been achieved in  12 iterations

     negative rho (up, down):  6.360E-04 1.350E-03

     Forces acting on atoms (cartesian axes, Ry/au):

     atom    1 type  1   force =     0.00000000    0.00000000    0.00000000

     Total force =     0.000000     Total SCF correction =     0.000000


     Computing stress (Cartesian axis) and pressure


     negative rho (up, down):  6.360E-04 1.350E-03
          total   stress  (Ry/bohr**3)                   (kbar)     P=   -23400.88
  -0.15907596  -0.00000000   0.00000000       -23400.88       -0.00        0.00
  -0.00000000  -0.15907596  -0.00000000           -0.00   -23400.88       -0.00
   0.00000000  -0.00000000  -0.15907596            0.00       -0.00   -23400.88


     BFGS Geometry Optimization
     Energy error            =      0.0E+00 Ry
     Gradient error          =      0.0E+00 Ry/Bohr
     Cell gradient error     =      2.3E+04 kbar

     number of scf cycles    =   1
     number of bfgs steps    =   0

     enthalpy           new  =    -245.6231064898 Ry

     new trust radius        =       0.5000000000 bohr
     new conv_thr            =            1.0E-10 Ry

     new unit-cell volume =     16.17381 a.u.^3 (     2.39671 Ang^3 )
     density =     38.69168 g/cm^3

CELL_PARAMETERS (alat=  4.80000000)
   0.331901764   0.331901764   0.331901764
  -0.331901764   0.331901764   0.331901764
  -0.331901764  -0.331901764   0.331901764

ATOMIC_POSITIONS (crystal)
Fe            0.0000000000        0.0000000000        0.0000000000



     Writing config-only to output data dir /tmp/Fe.save/
     NEW-OLD atomic charge density approx. for the potential

     Check: negative core charge=   -0.000003

     negative rho (up, down):  1.135E+01 1.135E+01
     Generating pointlists ...
     new r_m :   0.2371 (alat units)  1.1382 (a.u.) for type    1

     total cpu time spent up to now is        4.9 secs

     Self-consistent Calculation

     iteration #  1     ecut=    30.00 Ry     beta= 0.70
     Davidson diagonalization with overlap
     c_bands:  2 eigenvalues not converged
     c_bands:  2 eigenvalues not converged
     c_bands:  2 eigenvalues not converged
     c_bands:  2 eigenvalues not converged
     c_bands:  2 eigenvalues not converged
     c_bands:  2 eigenvalues not converged
     c_bands:  2 eigenvalues not converged
     c_bands:  2 eigenvalues not converged
     c_bands:  2 eigenvalues not converged
     c_bands:  2 eigenvalues not converged
     c_bands:  2 eigenvalues not converged
     c_bands:  2 eigenvalues not converged
     c_bands:  2 eigenvalues not converged
     c_bands:  2 eigenvalues not converged
     c_bands:  2 eigenvalues not converged
     c_bands:  2 eigenvalues not converged
     c_bands:  2 eigenvalues not converged
     c_bands:  2 eigenvalues not converged
     c_bands:  2 eigenvalues not converged
     c_bands:  2 eigenvalues not converged
     c_bands:  2 eigenvalues not converged
     c_bands:  2 eigenvalues not converged
     c_bands:  2 eigenvalues not converged
     c_bands:  2 eigenvalues not converged
     c_bands:  2 eigenvalues not converged
     c_bands:  2 eigenvalues not converged
     c_bands:  2 eigenvalues not converged
     c_bands:  2 eigenvalues not converged
     c_bands:  2 eigenvalues not converged
     c_bands:  2 eigenvalues not converged
     c_bands:  2 eigenvalues not converged
     c_bands:  2 eigenvalues not converged
     c_bands:  2 eigenvalues not converged
     c_bands:  2 eigenvalues not converged
     c_bands:  1 eigenvalues not converged
     c_bands:  2 eigenvalues not converged
     c_bands:  2 eigenvalues not converged
     c_bands:  2 eigenvalues not converged
     c_bands:  2 eigenvalues not converged
     c_bands:  2 eigenvalues not converged
     c_bands:  2 eigenvalues not converged
     c_bands:  2 eigenvalues not converged
     c_bands:  2 eigenvalues not converged
     c_bands:  2 eigenvalues not converged
     c_bands:  2 eigenvalues not converged
     c_bands:  2 eigenvalues not converged
     c_bands:  2 eigenvalues not converged
     c_bands:  1 eigenvalues not converged
     c_bands:  2 eigenvalues not converged
     c_bands:  2 eigenvalues not converged
     c_bands:  2 eigenvalues not converged
     c_bands:  2 eigenvalues not converged
     c_bands:  2 eigenvalues not converged
     c_bands:  2 eigenvalues not converged
     c_bands:  2 eigenvalues not converged
     c_bands:  2 eigenvalues not converged
     c_bands:  2 eigenvalues not converged
     c_bands:  2 eigenvalues not converged
     c_bands:  2 eigenvalues not converged
     c_bands:  2 eigenvalues not converged
     c_bands:  2 eigenvalues not converged
     c_bands:  2 eigenvalues not converged
     c_bands:  2 eigenvalues not converged
     c_bands:  2 eigenvalues not converged
     c_bands:  2 eigenvalues not converged
     c_bands:  2 eigenvalues not converged
     c_bands:  2 eigenvalues not converged
     c_bands:  2 eigenvalues not converged
     c_bands:  2 eigenvalues not converged
     c_bands:  2 eigenvalues not converged
     c_bands:  2 eigenvalues not converged
     c_bands:  2 eigenvalues not converged
     c_bands:  2 eigenvalues not converged
     c_bands:  2 eigenvalues not converged
     c_bands:  2 eigenvalues not converged
     c_bands:  2 eigenvalues not converged
     ethr =  1.00E-06,  avg # of iterations = 20.0

     negative rho (up, down):  7.003E-02 7.003E-02

     total cpu time spent up to now is        5.9 secs

     WARNING: integrated charge=     4.38978929, expected=    16.00000000

 %%%%%%%%%%%%%%%%%%%%%%%%%%%%%%%%%%%%%%%%%%%%%%%%%%%%%%%%%%%%%%%%%%%%%%%%%%%%%%
     Error in routine electrons (1):
     charge is wrong
 %%%%%%%%%%%%%%%%%%%%%%%%%%%%%%%%%%%%%%%%%%%%%%%%%%%%%%%%%%%%%%%%%%%%%%%%%%%%%%

     stopping ...
