
     Program PWSCF v.7.0 starts on 26Mar2022 at 20:11:36 

     This program is part of the open-source Quantum ESPRESSO suite
     for quantum simulation of materials; please cite
         "P. Giannozzi et al., J. Phys.:Condens. Matter 21 395502 (2009);
         "P. Giannozzi et al., J. Phys.:Condens. Matter 29 465901 (2017);
         "P. Giannozzi et al., J. Chem. Phys. 152 154105 (2020);
          URL http://www.quantum-espresso.org", 
     in publications or presentations arising from this work. More details at
     http://www.quantum-espresso.org/quote

     Parallel version (MPI), running on     1 processors

     MPI processes distributed on     1 nodes
     0 MiB available memory on the printing compute node when the environment starts

     Reading input from PbTiO3.scf.in

     Current dimensions of program PWSCF are:
     Max number of different atomic species (ntypx) = 10
     Max number of k-points (npk) =  40000
     Max angular momentum in pseudopotentials (lmaxx) =  4
     file Pb.pbe-dn-kjpaw_psl.0.2.2.UPF: wavefunction(s)  6S renormalized
     file O.pbe-n-kjpaw_psl.0.1.UPF: wavefunction(s)  2P renormalized
     Message from routine setup:
     using ibrav=0 with symmetry is DISCOURAGED, use correct ibrav instead

     Subspace diagonalization in iterative solution of the eigenvalue problem:
     a serial algorithm will be used


     G-vector sticks info
     --------------------
     sticks:   dense  smooth     PW     G-vecs:    dense   smooth      PW
     Sum         681     681    197                13613    13613    2109

     Using Slab Decomposition



     bravais-lattice index     =            0
     lattice parameter (alat)  =       8.5000  a.u.
     unit-cell volume          =     614.1250 (a.u.)^3
     number of atoms/cell      =            5
     number of atomic types    =            3
     number of electrons       =        44.00
     number of Kohn-Sham states=           26
     kinetic-energy cutoff     =      30.0000  Ry
     charge density cutoff     =     120.0000  Ry
     scf convergence threshold =      1.0E-06
     mixing beta               =       0.7000
     number of iterations used =            8  plain     mixing
     Exchange-correlation= SLA  PW   PBX  PBC
                           (   1   4   3   4   0   0   0)

     celldm(1)=   8.500000  celldm(2)=   0.000000  celldm(3)=   0.000000
     celldm(4)=   0.000000  celldm(5)=   0.000000  celldm(6)=   0.000000

     crystal axes: (cart. coord. in units of alat)
               a(1) = (   1.000000   0.000000   0.000000 )  
               a(2) = (   0.000000   1.000000   0.000000 )  
               a(3) = (   0.000000   0.000000   1.000000 )  

     reciprocal axes: (cart. coord. in units 2 pi/alat)
               b(1) = (  1.000000  0.000000  0.000000 )  
               b(2) = (  0.000000  1.000000  0.000000 )  
               b(3) = (  0.000000  0.000000  1.000000 )  


     PseudoPot. # 1 for Pb read from file:
     ./pseudo/Pb.pbe-dn-kjpaw_psl.0.2.2.UPF
     MD5 check sum: 9d431e6316058b74ade52399a6cf67da
     Pseudo is Projector augmented-wave + core cor, Zval = 14.0
     Generated using "atomic" code by A. Dal Corso  v.5.0.99 svn rev. 10869
     Shape of augmentation charge: PSQ
     Using radial grid of 1281 points,  6 beta functions with: 
                l(1) =   0
                l(2) =   0
                l(3) =   1
                l(4) =   1
                l(5) =   2
                l(6) =   2
     Q(r) pseudized with 0 coefficients 


     PseudoPot. # 2 for Ti read from file:
     ./pseudo/ti_pbe_v1.4.uspp.F.UPF
     MD5 check sum: 88a00a6731bd790ddea75d31a80cb452
     Pseudo is Ultrasoft + core correction, Zval = 12.0
     Generated by new atomic code, or converted to UPF format
     Using radial grid of  851 points,  6 beta functions with: 
                l(1) =   0
                l(2) =   0
                l(3) =   1
                l(4) =   1
                l(5) =   2
                l(6) =   2
     Q(r) pseudized with  6 coefficients,  rinner =    1.000   1.000   1.000
                                                       1.000   1.000

     PseudoPot. # 3 for O  read from file:
     ./pseudo/O.pbe-n-kjpaw_psl.0.1.UPF
     MD5 check sum: 0234752ac141de4415c5fc33072bef88
     Pseudo is Projector augmented-wave + core cor, Zval =  6.0
     Generated using "atomic" code by A. Dal Corso  v.5.0.99 svn rev. 10869
     Shape of augmentation charge: BESSEL
     Using radial grid of 1095 points,  4 beta functions with: 
                l(1) =   0
                l(2) =   0
                l(3) =   1
                l(4) =   1
     Q(r) pseudized with 0 coefficients 


     atomic species   valence    mass     pseudopotential
        Pb            14.00   207.20000     Pb( 1.00)
        Ti            12.00    47.86700     Ti( 1.00)
        O              6.00    15.99900     O ( 1.00)

     48 Sym. Ops., with inversion, found



   Cartesian axes

     site n.     atom                  positions (alat units)
         1           Pb  tau(   1) = (   0.0000000   0.0000000   0.0000000  )
         2           Ti  tau(   2) = (   0.5000000   0.5000000   0.5000000  )
         3           O   tau(   3) = (   0.5000000   0.5000000   0.0000000  )
         4           O   tau(   4) = (   0.5000000   0.0000000   0.5000000  )
         5           O   tau(   5) = (   0.0000000   0.5000000   0.5000000  )

     number of k points=     4  Gaussian smearing, width (Ry)=  0.0200
                       cart. coord. in units 2pi/alat
        k(    1) = (   0.1250000   0.1250000   0.1250000), wk =   0.2500000
        k(    2) = (   0.1250000   0.1250000   0.3750000), wk =   0.7500000
        k(    3) = (   0.1250000   0.3750000   0.3750000), wk =   0.7500000
        k(    4) = (   0.3750000   0.3750000   0.3750000), wk =   0.2500000

     Dense  grid:    13613 G-vectors     FFT dimensions: (  30,  30,  30)

     Estimated max dynamical RAM per process >      55.19 MB

     Check: negative core charge=   -0.000172

     Initial potential from superposition of free atoms

     starting charge      42.9976, renormalised to      44.0000

     negative rho (up, down):  5.805E-03 0.000E+00
     Starting wfcs are   31 randomized atomic wfcs
     Checking if some PAW data can be deallocated... 

     total cpu time spent up to now is        1.8 secs

     Self-consistent Calculation

     iteration #  1     ecut=    30.00 Ry     beta= 0.70
     Davidson diagonalization with overlap
     ethr =  1.00E-02,  avg # of iterations =  1.8

     negative rho (up, down):  6.162E-03 0.000E+00

     total cpu time spent up to now is        2.7 secs

     total energy              =   -1114.11923557 Ry
     estimated scf accuracy    <       1.25470342 Ry

     iteration #  2     ecut=    30.00 Ry     beta= 0.70
     Davidson diagonalization with overlap
     ethr =  2.85E-03,  avg # of iterations =  5.5

     negative rho (up, down):  4.298E-03 0.000E+00

     total cpu time spent up to now is        3.7 secs

     total energy              =   -1111.59193631 Ry
     estimated scf accuracy    <      38.28474435 Ry

     iteration #  3     ecut=    30.00 Ry     beta= 0.70
     Davidson diagonalization with overlap
     ethr =  2.85E-03,  avg # of iterations =  7.2

     negative rho (up, down):  4.728E-03 0.000E+00

     total cpu time spent up to now is        4.8 secs

     total energy              =   -1114.67461813 Ry
     estimated scf accuracy    <       0.77543345 Ry

     iteration #  4     ecut=    30.00 Ry     beta= 0.70
     Davidson diagonalization with overlap
     ethr =  1.76E-03,  avg # of iterations =  2.2

     negative rho (up, down):  4.738E-03 0.000E+00

     total cpu time spent up to now is        5.7 secs

     total energy              =   -1114.77565533 Ry
     estimated scf accuracy    <       0.27666605 Ry

     iteration #  5     ecut=    30.00 Ry     beta= 0.70
     Davidson diagonalization with overlap
     ethr =  6.29E-04,  avg # of iterations =  1.5

     negative rho (up, down):  4.919E-03 0.000E+00

     total cpu time spent up to now is        6.7 secs

     total energy              =   -1114.76572037 Ry
     estimated scf accuracy    <       0.10763763 Ry

     iteration #  6     ecut=    30.00 Ry     beta= 0.70
     Davidson diagonalization with overlap
     ethr =  2.45E-04,  avg # of iterations =  2.8

     negative rho (up, down):  5.077E-03 0.000E+00

     total cpu time spent up to now is        7.6 secs

     total energy              =   -1114.77325291 Ry
     estimated scf accuracy    <       0.01179512 Ry

     iteration #  7     ecut=    30.00 Ry     beta= 0.70
     Davidson diagonalization with overlap
     ethr =  2.68E-05,  avg # of iterations =  7.5

     negative rho (up, down):  5.078E-03 0.000E+00

     total cpu time spent up to now is        8.6 secs

     total energy              =   -1114.77737531 Ry
     estimated scf accuracy    <       0.00220950 Ry

     iteration #  8     ecut=    30.00 Ry     beta= 0.70
     Davidson diagonalization with overlap
     ethr =  5.02E-06,  avg # of iterations =  2.5

     negative rho (up, down):  5.082E-03 0.000E+00

     total cpu time spent up to now is        9.6 secs

     total energy              =   -1114.77740688 Ry
     estimated scf accuracy    <       0.00224302 Ry

     iteration #  9     ecut=    30.00 Ry     beta= 0.70
     Davidson diagonalization with overlap
     ethr =  5.02E-06,  avg # of iterations =  1.2

     negative rho (up, down):  4.911E-03 0.000E+00

     total cpu time spent up to now is       10.5 secs

     total energy              =   -1114.77551937 Ry
     estimated scf accuracy    <       0.00223205 Ry

     iteration # 10     ecut=    30.00 Ry     beta= 0.70
     Davidson diagonalization with overlap
     ethr =  5.02E-06,  avg # of iterations =  5.2

     negative rho (up, down):  5.053E-03 0.000E+00

     total cpu time spent up to now is       11.5 secs

     total energy              =   -1114.77793246 Ry
     estimated scf accuracy    <       0.03055229 Ry

     iteration # 11     ecut=    30.00 Ry     beta= 0.70
     Davidson diagonalization with overlap
     ethr =  5.02E-06,  avg # of iterations =  2.5

     negative rho (up, down):  5.149E-03 0.000E+00

     total cpu time spent up to now is       12.5 secs

     total energy              =   -1114.77644937 Ry
     estimated scf accuracy    <       0.01340418 Ry

     iteration # 12     ecut=    30.00 Ry     beta= 0.70
     Davidson diagonalization with overlap
     ethr =  5.02E-06,  avg # of iterations =  4.2

     negative rho (up, down):  5.137E-03 0.000E+00

     total cpu time spent up to now is       13.5 secs

     total energy              =   -1114.77723509 Ry
     estimated scf accuracy    <       0.00129437 Ry

     iteration # 13     ecut=    30.00 Ry     beta= 0.70
     Davidson diagonalization with overlap
     ethr =  2.94E-06,  avg # of iterations =  1.0

     negative rho (up, down):  5.147E-03 0.000E+00

     total cpu time spent up to now is       14.4 secs

     total energy              =   -1114.77720875 Ry
     estimated scf accuracy    <       0.00166368 Ry

     iteration # 14     ecut=    30.00 Ry     beta= 0.70
     Davidson diagonalization with overlap
     ethr =  2.94E-06,  avg # of iterations =  1.0

     negative rho (up, down):  5.166E-03 0.000E+00

     total cpu time spent up to now is       15.3 secs

     total energy              =   -1114.77706573 Ry
     estimated scf accuracy    <       0.00118765 Ry

     iteration # 15     ecut=    30.00 Ry     beta= 0.70
     Davidson diagonalization with overlap
     ethr =  2.70E-06,  avg # of iterations =  1.0

     negative rho (up, down):  5.179E-03 0.000E+00

     total cpu time spent up to now is       16.2 secs

     total energy              =   -1114.77706871 Ry
     estimated scf accuracy    <       0.00020993 Ry

     iteration # 16     ecut=    30.00 Ry     beta= 0.70
     Davidson diagonalization with overlap
     ethr =  4.77E-07,  avg # of iterations =  5.2

     negative rho (up, down):  5.176E-03 0.000E+00

     total cpu time spent up to now is       17.2 secs

     total energy              =   -1114.77711399 Ry
     estimated scf accuracy    <       0.00000575 Ry

     iteration # 17     ecut=    30.00 Ry     beta= 0.70
     Davidson diagonalization with overlap
     ethr =  1.31E-08,  avg # of iterations =  5.2

     negative rho (up, down):  5.177E-03 0.000E+00

     total cpu time spent up to now is       18.3 secs

     total energy              =   -1114.77712085 Ry
     estimated scf accuracy    <       0.00000767 Ry

     iteration # 18     ecut=    30.00 Ry     beta= 0.70
     Davidson diagonalization with overlap
     ethr =  1.31E-08,  avg # of iterations =  1.0

     negative rho (up, down):  5.177E-03 0.000E+00

     total cpu time spent up to now is       19.2 secs

     total energy              =   -1114.77712150 Ry
     estimated scf accuracy    <       0.00000650 Ry

     iteration # 19     ecut=    30.00 Ry     beta= 0.70
     Davidson diagonalization with overlap
     ethr =  1.31E-08,  avg # of iterations =  1.0

     negative rho (up, down):  5.176E-03 0.000E+00

     total cpu time spent up to now is       20.1 secs

     total energy              =   -1114.77712009 Ry
     estimated scf accuracy    <       0.00001167 Ry

     iteration # 20     ecut=    30.00 Ry     beta= 0.70
     Davidson diagonalization with overlap
     ethr =  1.31E-08,  avg # of iterations =  2.0

     negative rho (up, down):  5.173E-03 0.000E+00

     total cpu time spent up to now is       21.1 secs

     total energy              =   -1114.77712039 Ry
     estimated scf accuracy    <       0.00000374 Ry

     iteration # 21     ecut=    30.00 Ry     beta= 0.70
     Davidson diagonalization with overlap
     ethr =  8.50E-09,  avg # of iterations =  4.5

     negative rho (up, down):  5.174E-03 0.000E+00

     total cpu time spent up to now is       22.1 secs

     total energy              =   -1114.77712046 Ry
     estimated scf accuracy    <       0.00002871 Ry

     iteration # 22     ecut=    30.00 Ry     beta= 0.70
     Davidson diagonalization with overlap
     ethr =  8.50E-09,  avg # of iterations =  3.0

     negative rho (up, down):  5.174E-03 0.000E+00

     total cpu time spent up to now is       23.0 secs

     total energy              =   -1114.77711990 Ry
     estimated scf accuracy    <       0.00000832 Ry

     iteration # 23     ecut=    30.00 Ry     beta= 0.70
     Davidson diagonalization with overlap
     ethr =  8.50E-09,  avg # of iterations =  2.0

     negative rho (up, down):  5.175E-03 0.000E+00

     total cpu time spent up to now is       24.0 secs

     total energy              =   -1114.77711988 Ry
     estimated scf accuracy    <       0.00000194 Ry

     iteration # 24     ecut=    30.00 Ry     beta= 0.70
     Davidson diagonalization with overlap
     ethr =  4.42E-09,  avg # of iterations =  3.2

     negative rho (up, down):  5.175E-03 0.000E+00

     total cpu time spent up to now is       24.9 secs

     End of self-consistent calculation

          k = 0.1250 0.1250 0.1250 (  1704 PWs)   bands (ev):

   -52.2593 -28.3485 -28.3485 -28.3485 -10.8012 -10.8012 -10.7606 -10.7548
   -10.7548 -10.5529 -10.0282 -10.0282  -1.2680   3.1650   3.1650   3.2056
     4.5271   4.5271   4.8193   4.9738   4.9738   5.1000   7.0256   7.0415
     7.0415   8.0804

          k = 0.1250 0.1250 0.3750 (  1701 PWs)   bands (ev):

   -52.2592 -28.3542 -28.3483 -28.3483 -10.7839 -10.7808 -10.7765 -10.7647
   -10.7543 -10.3888 -10.0538 -10.0399  -1.3902   2.6561   3.3814   3.3909
     3.8648   4.2518   4.4850   5.0047   5.0773   5.1373   7.0012   7.5530
     7.5761   8.0686

          k = 0.1250 0.3750 0.3750 (  1700 PWs)   bands (ev):

   -52.2592 -28.3540 -28.3540 -28.3481 -10.8331 -10.7730 -10.7720 -10.7637
   -10.7541 -10.2108 -10.0516 -10.0300  -1.3752   2.4823   2.8798   3.3726
     3.5943   3.7277   4.1619   4.7939   4.8498   5.5276   7.4887   7.5379
     7.8124   8.4239

          k = 0.3750 0.3750 0.3750 (  1694 PWs)   bands (ev):

   -52.2590 -28.3539 -28.3538 -28.3538 -10.8234 -10.8171 -10.8171 -10.7522
   -10.7522 -10.0724  -9.9930  -9.9930  -1.1306   2.2821   2.7539   2.7539
     2.9581   2.9581   3.2348   5.4856   5.4856   5.5658   7.6022   7.7077
     7.7077   9.3944

     the Fermi energy is     6.2716 ev

!    total energy              =   -1114.77712014 Ry
     estimated scf accuracy    <       0.00000007 Ry
     smearing contrib. (-TS)   =      -0.00000955 Ry
     internal energy E=F+TS    =   -1114.77711059 Ry

     The total energy is F=E-TS. E is the sum of the following terms:
     one-electron contribution =    -123.24409872 Ry
     hartree contribution      =      84.78013431 Ry
     xc contribution           =     -83.78583062 Ry
     ewald contribution        =    -235.46094297 Ry
     one-center paw contrib.   =    -757.06637260 Ry

     convergence has been achieved in  24 iterations

     Writing all to output data dir ./temp/PbTiO3.save/

     init_run     :      1.50s CPU      1.54s WALL (       1 calls)
     electrons    :     22.24s CPU     23.18s WALL (       1 calls)

     Called by init_run:
     wfcinit      :      0.09s CPU      0.10s WALL (       1 calls)
     potinit      :      0.55s CPU      0.56s WALL (       1 calls)
     hinit0       :      0.80s CPU      0.81s WALL (       1 calls)

     Called by electrons:
     c_bands      :      5.39s CPU      5.79s WALL (      24 calls)
     sum_band     :      2.73s CPU      2.93s WALL (      24 calls)
     v_of_rho     :      0.25s CPU      0.26s WALL (      25 calls)
     newd         :      1.23s CPU      1.38s WALL (      25 calls)
     PAW_pot      :     13.11s CPU     13.31s WALL (      25 calls)
     mix_rho      :      0.07s CPU      0.08s WALL (      24 calls)

     Called by c_bands:
     init_us_2    :      0.23s CPU      0.24s WALL (     196 calls)
     init_us_2:cp :      0.23s CPU      0.24s WALL (     196 calls)
     cegterg      :      4.30s CPU      4.68s WALL (      96 calls)

     Called by *egterg:
     cdiaghg      :      0.21s CPU      0.22s WALL (     394 calls)
     h_psi        :      3.53s CPU      3.72s WALL (     398 calls)
     s_psi        :      0.08s CPU      0.12s WALL (     398 calls)
     g_psi        :      0.05s CPU      0.06s WALL (     298 calls)

     Called by h_psi:
     h_psi:calbec :      0.12s CPU      0.19s WALL (     398 calls)
     vloc_psi     :      3.30s CPU      3.35s WALL (     398 calls)
     add_vuspsi   :      0.10s CPU      0.15s WALL (     398 calls)

     General routines
     calbec       :      0.15s CPU      0.25s WALL (     494 calls)
     fft          :      0.07s CPU      0.07s WALL (     275 calls)
     ffts         :      0.01s CPU      0.01s WALL (      24 calls)
     fftw         :      2.34s CPU      2.39s WALL (   15146 calls)

     Parallel routines

     PWSCF        :     23.97s CPU     24.96s WALL


   This run was terminated on:  20:12: 1  26Mar2022            

=------------------------------------------------------------------------------=
   JOB DONE.
=------------------------------------------------------------------------------=
