
     Program PWSCF v.7.0 starts on 24Mar2022 at  9:26: 5 

     This program is part of the open-source Quantum ESPRESSO suite
     for quantum simulation of materials; please cite
         "P. Giannozzi et al., J. Phys.:Condens. Matter 21 395502 (2009);
         "P. Giannozzi et al., J. Phys.:Condens. Matter 29 465901 (2017);
         "P. Giannozzi et al., J. Chem. Phys. 152 154105 (2020);
          URL http://www.quantum-espresso.org", 
     in publications or presentations arising from this work. More details at
     http://www.quantum-espresso.org/quote

     Parallel version (MPI), running on     1 processors

     MPI processes distributed on     1 nodes
     0 MiB available memory on the printing compute node when the environment starts

     Reading input from fe.vc-relax.in
     Message from routine read_cards :
     DEPRECATED: no units specified in ATOMIC_POSITIONS card
     Message from routine read_cards :
     ATOMIC_POSITIONS: units set to alat

     Current dimensions of program PWSCF are:
     Max number of different atomic species (ntypx) = 10
     Max number of k-points (npk) =  40000
     Max angular momentum in pseudopotentials (lmaxx) =  4

     File ./temp/fe.update deleted, as requested

     File ./temp/fe.bfgs deleted, as requested

     Subspace diagonalization in iterative solution of the eigenvalue problem:
     a serial algorithm will be used


     G-vector sticks info
     --------------------
     sticks:   dense  smooth     PW     G-vecs:    dense   smooth      PW
     Sum         921     277     95                17861     2899     603

     Using Slab Decomposition



     bravais-lattice index     =            3
     lattice parameter (alat)  =       3.9000  a.u.
     unit-cell volume          =      29.6595 (a.u.)^3
     number of atoms/cell      =            1
     number of atomic types    =            1
     number of electrons       =        16.00
     number of Kohn-Sham states=           12
     kinetic-energy cutoff     =      80.0000  Ry
     charge density cutoff     =    1080.0000  Ry
     scf convergence threshold =      1.0E-06
     mixing beta               =       0.7000
     number of iterations used =            8  plain     mixing
     energy convergence thresh.=      1.0E-04
     force convergence thresh. =      1.0E-03
     press convergence thresh. =      5.0E-01
     Exchange-correlation= PBE
                           (   1   4   3   4   0   0   0)
     nstep                     =           50


     celldm(1)=   3.900000  celldm(2)=   0.000000  celldm(3)=   0.000000
     celldm(4)=   0.000000  celldm(5)=   0.000000  celldm(6)=   0.000000

     crystal axes: (cart. coord. in units of alat)
               a(1) = (   0.500000   0.500000   0.500000 )  
               a(2) = (  -0.500000   0.500000   0.500000 )  
               a(3) = (  -0.500000  -0.500000   0.500000 )  

     reciprocal axes: (cart. coord. in units 2 pi/alat)
               b(1) = (  1.000000  0.000000  1.000000 )  
               b(2) = ( -1.000000  1.000000  0.000000 )  
               b(3) = (  0.000000 -1.000000  1.000000 )  


     PseudoPot. # 1 for Fe read from file:
     ./Fe.pbe-spn-rrkjus_psl.1.0.0.UPF
     MD5 check sum: 72ea77fed8e64ab3a2ccf2804dfc1862
     Pseudo is Ultrasoft + core correction, Zval = 16.0
     Generated using &quot;atomic&quot; code by A. Dal Corso  v.6.3
     Using radial grid of 1191 points,  6 beta functions with: 
                l(1) =   0
                l(2) =   0
                l(3) =   1
                l(4) =   1
                l(5) =   2
                l(6) =   2
     Q(r) pseudized with 0 coefficients 


     atomic species   valence    mass     pseudopotential
        Fe            16.00    55.84700     Fe( 1.00)

     Starting magnetic structure 
     atomic species   magnetization
        Fe           0.700

     48 Sym. Ops., with inversion, found



   Cartesian axes

     site n.     atom                  positions (alat units)
         1           Fe  tau(   1) = (   0.0000000   0.0000000   0.0000000  )

     number of k points=    29  Methfessel-Paxton smearing, width (Ry)=  0.0200
                       cart. coord. in units 2pi/alat
        k(    1) = (   0.0000000   0.0000000   0.0000000), wk =   0.0019531
        k(    2) = (   0.0000000  -0.1250000   0.1250000), wk =   0.0234375
        k(    3) = (   0.0000000  -0.2500000   0.2500000), wk =   0.0234375
        k(    4) = (   0.0000000  -0.3750000   0.3750000), wk =   0.0234375
        k(    5) = (   0.0000000   0.5000000  -0.5000000), wk =   0.0117188
        k(    6) = (  -0.1250000  -0.1250000   0.2500000), wk =   0.0468750
        k(    7) = (  -0.1250000  -0.2500000   0.3750000), wk =   0.0937500
        k(    8) = (  -0.1250000   0.6250000  -0.5000000), wk =   0.0937500
        k(    9) = (  -0.2500000   0.7500000  -0.5000000), wk =   0.0468750
        k(   10) = (  -0.2500000   0.6250000  -0.3750000), wk =   0.0468750
        k(   11) = (   0.0000000   0.0000000   0.2500000), wk =   0.0117188
        k(   12) = (   0.0000000  -0.1250000   0.3750000), wk =   0.0468750
        k(   13) = (   0.0000000  -0.2500000   0.5000000), wk =   0.0468750
        k(   14) = (   0.0000000   0.6250000  -0.3750000), wk =   0.0234375
        k(   15) = (  -0.1250000  -0.1250000   0.5000000), wk =   0.0468750
        k(   16) = (  -0.1250000   0.7500000  -0.3750000), wk =   0.0937500
        k(   17) = (  -0.2500000   0.2500000   0.2500000), wk =   0.0156250
        k(   18) = (  -0.2500000   0.7500000  -0.2500000), wk =   0.0156250
        k(   19) = (   0.6250000  -0.6250000   0.2500000), wk =   0.0468750
        k(   20) = (   0.5000000  -0.5000000   0.2500000), wk =   0.0234375
        k(   21) = (   0.5000000  -0.6250000   0.3750000), wk =   0.0468750
        k(   22) = (   0.0000000   0.0000000   0.5000000), wk =   0.0117188
        k(   23) = (   0.0000000  -0.1250000   0.6250000), wk =   0.0468750
        k(   24) = (   0.0000000   0.7500000  -0.2500000), wk =   0.0234375
        k(   25) = (  -0.1250000   0.8750000  -0.2500000), wk =   0.0468750
        k(   26) = (   0.5000000  -0.5000000   0.5000000), wk =   0.0039062
        k(   27) = (   0.0000000   0.0000000   0.7500000), wk =   0.0117188
        k(   28) = (   0.0000000   0.8750000  -0.1250000), wk =   0.0234375
        k(   29) = (   0.0000000   0.0000000  -1.0000000), wk =   0.0019531

     Dense  grid:    17861 G-vectors     FFT dimensions: (  36,  36,  36)

     Smooth grid:     2899 G-vectors     FFT dimensions: (  20,  20,  20)

     Estimated max dynamical RAM per process >      82.17 MB
     Generating pointlists ...
     new r_m :   0.3572 (alat units)  1.3932 (a.u.) for type    1

     Initial potential from superposition of free atoms

     starting charge      15.9996, renormalised to      16.0000
     Starting wfcs are   10 randomized atomic wfcs +    2 random wfcs

     total cpu time spent up to now is        2.9 secs

     Self-consistent Calculation

     iteration #  1     ecut=    80.00 Ry     beta= 0.70
     Davidson diagonalization with overlap
     ethr =  1.00E-02,  avg # of iterations =  3.8

     negative rho (up, down):  0.000E+00 2.114E-04

     total cpu time spent up to now is        3.5 secs

     total energy              =    -246.38379683 Ry
     estimated scf accuracy    <       2.09635088 Ry

     total magnetization       =     2.69 Bohr mag/cell
     absolute magnetization    =     2.69 Bohr mag/cell

     iteration #  2     ecut=    80.00 Ry     beta= 0.70
     Davidson diagonalization with overlap
     ethr =  1.00E-02,  avg # of iterations =  1.0

     negative rho (up, down):  0.000E+00 8.496E-04

     total cpu time spent up to now is        3.9 secs

     total energy              =    -246.64948154 Ry
     estimated scf accuracy    <       0.33815961 Ry

     total magnetization       =     2.04 Bohr mag/cell
     absolute magnetization    =     2.04 Bohr mag/cell

     iteration #  3     ecut=    80.00 Ry     beta= 0.70
     Davidson diagonalization with overlap
     ethr =  2.11E-03,  avg # of iterations =  1.3

     negative rho (up, down):  0.000E+00 9.107E-05

     total cpu time spent up to now is        4.4 secs

     total energy              =    -246.74920679 Ry
     estimated scf accuracy    <       0.04194126 Ry

     total magnetization       =     0.82 Bohr mag/cell
     absolute magnetization    =     0.87 Bohr mag/cell

     iteration #  4     ecut=    80.00 Ry     beta= 0.70
     Davidson diagonalization with overlap
     ethr =  2.62E-04,  avg # of iterations =  1.6

     negative rho (up, down):  0.000E+00 3.322E-06

     total cpu time spent up to now is        4.9 secs

     total energy              =    -246.75676124 Ry
     estimated scf accuracy    <       0.00693369 Ry

     total magnetization       =     0.60 Bohr mag/cell
     absolute magnetization    =     0.64 Bohr mag/cell

     iteration #  5     ecut=    80.00 Ry     beta= 0.70
     Davidson diagonalization with overlap
     ethr =  4.33E-05,  avg # of iterations =  2.0

     total cpu time spent up to now is        5.4 secs

     total energy              =    -246.76546045 Ry
     estimated scf accuracy    <       0.00146140 Ry

     total magnetization       =     0.18 Bohr mag/cell
     absolute magnetization    =     0.21 Bohr mag/cell

     iteration #  6     ecut=    80.00 Ry     beta= 0.70
     Davidson diagonalization with overlap
     ethr =  9.13E-06,  avg # of iterations =  1.7

     total cpu time spent up to now is        5.8 secs

     total energy              =    -246.76429896 Ry
     estimated scf accuracy    <       0.00159144 Ry

     total magnetization       =     0.19 Bohr mag/cell
     absolute magnetization    =     0.21 Bohr mag/cell

     iteration #  7     ecut=    80.00 Ry     beta= 0.70
     Davidson diagonalization with overlap
     ethr =  9.13E-06,  avg # of iterations =  2.1

     total cpu time spent up to now is        6.4 secs

     total energy              =    -246.76744661 Ry
     estimated scf accuracy    <       0.00006280 Ry

     total magnetization       =    -0.03 Bohr mag/cell
     absolute magnetization    =     0.03 Bohr mag/cell

     iteration #  8     ecut=    80.00 Ry     beta= 0.70
     Davidson diagonalization with overlap
     ethr =  3.93E-07,  avg # of iterations =  1.7

     total cpu time spent up to now is        6.8 secs

     total energy              =    -246.76747777 Ry
     estimated scf accuracy    <       0.00000684 Ry

     total magnetization       =    -0.01 Bohr mag/cell
     absolute magnetization    =     0.01 Bohr mag/cell

     iteration #  9     ecut=    80.00 Ry     beta= 0.70
     Davidson diagonalization with overlap
     ethr =  4.27E-08,  avg # of iterations =  1.7

     Magnetic moment per site  (integrated on atomic sphere of radius R)
     atom   1 (R=0.357)  charge= 13.5811  magn= -0.0007

     total cpu time spent up to now is        7.3 secs

     End of self-consistent calculation

 ------ SPIN UP ------------


          k = 0.0000 0.0000 0.0000 (   369 PWs)   bands (ev):

   -39.1897  -0.1814  -0.1814  -0.1814  41.2702  46.8104  46.8104  46.8104
    52.1983  52.1983  85.4527  85.4527

          k = 0.0000-0.1250 0.1250 (   358 PWs)   bands (ev):

   -38.8381  -1.2870  -0.4972  -0.2054  42.5935  46.0536  46.8072  48.1491
    51.4270  52.2622  85.4094  85.6707

          k = 0.0000-0.2500 0.2500 (   360 PWs)   bands (ev):

   -37.9338  -3.8346  -1.2241  -0.2662  42.4977  44.4211  49.3641  51.4024
    51.6333  52.5802  83.2404  83.8043

          k = 0.0000-0.3750 0.3750 (   360 PWs)   bands (ev):

   -36.9342  -6.2854  -1.9059  -0.3296  40.3041  42.9977  52.1753  53.1669
    55.0056  55.6680  78.7985  80.1815

          k = 0.0000 0.5000-0.5000 (   360 PWs)   bands (ev):

   -36.4855  -7.2913  -2.1768  -0.3564  39.3626  42.4555  52.7425  53.5077
    57.6004  58.0461  76.0366  78.5170

          k =-0.1250-0.1250 0.2500 (   355 PWs)   bands (ev):

   -38.2082  -2.9999  -0.9205  -0.4667  43.7752  45.5009  46.0313  50.6903
    51.3538  52.9546  84.0481  85.7657

          k =-0.1250-0.2500 0.3750 (   360 PWs)   bands (ev):

   -37.2436  -5.2082  -1.8602  -0.6240  42.2267  43.8677  48.8887  51.3062
    53.6049  56.8968  80.9866  82.1565

          k =-0.1250 0.6250-0.5000 (   358 PWs)   bands (ev):

   -36.4973  -6.7474  -2.5475  -0.7006  40.5954  43.0266  50.9605  52.4399
    55.0436  61.7486  76.5904  79.4811

          k =-0.2500 0.7500-0.5000 (   353 PWs)   bands (ev):

   -36.5091  -5.9794  -3.2326  -0.9500  42.2646  43.9146  48.1195  51.8521
    54.2996  63.5007  77.8069  79.5357

          k =-0.2500 0.6250-0.3750 (   355 PWs)   bands (ev):

   -36.1904  -6.0472  -4.1218  -1.0377  42.0010  44.2953  47.7258  52.7245
    54.3232  68.0396  74.2280  78.2201

          k = 0.0000 0.0000 0.2500 (   357 PWs)   bands (ev):

   -38.5006  -1.6615  -0.8273  -0.8273  43.8643  46.9128  46.9128  47.9955
    49.1771  53.5715  84.2750  88.6408

          k = 0.0000-0.1250 0.3750 (   361 PWs)   bands (ev):

   -37.6354  -3.7772  -1.5851  -1.0272  43.7635  45.8105  46.9188  49.5758
    51.2245  55.4841  83.2758  85.6739

          k = 0.0000-0.2500 0.5000 (   362 PWs)   bands (ev):

   -36.6843  -6.0144  -2.2946  -1.0387  41.2291  44.5352  47.8243  51.2971
    55.3910  59.6058  79.1780  81.9283

          k = 0.0000 0.6250-0.3750 (   364 PWs)   bands (ev):

   -36.2596  -6.9410  -2.5761  -1.0395  40.2065  44.0401  48.6271  51.1869
    57.4143  63.0097  75.8806  80.7284

          k =-0.1250-0.1250 0.5000 (   362 PWs)   bands (ev):

   -36.7668  -5.1441  -2.6565  -1.3700  43.3965  43.8908  47.5525  49.7529
    53.8249  59.9526  81.7114  82.6102

          k =-0.1250 0.7500-0.3750 (   360 PWs)   bands (ev):

   -36.1033  -6.1713  -3.5621  -1.3833  41.6692  44.4805  46.1661  51.3355
    55.7642  65.9737  76.8688  80.4489

          k =-0.2500 0.2500 0.2500 (   357 PWs)   bands (ev):

   -37.4691  -4.7618  -1.1462  -1.1462  43.9983  43.9983  46.2713  52.3598
    52.3598  56.9377  82.3390  82.3390

          k =-0.2500 0.7500-0.2500 (   372 PWs)   bands (ev):

   -35.8560  -5.2425  -5.2425  -1.3881  43.4086  43.4086  44.3183  54.0366
    54.0366  72.7790  72.7790  77.6272

          k = 0.6250-0.6250 0.2500 (   354 PWs)   bands (ev):

   -36.6759  -5.9694  -2.4559  -1.3726  42.8459  43.1899  48.9874  52.7996
    53.3074  62.6278  78.1207  79.6833

          k = 0.5000-0.5000 0.2500 (   354 PWs)   bands (ev):

   -36.3290  -6.3653  -3.1191  -1.4666  42.2395  42.9532  50.6250  53.1669
    53.6177  65.8765  74.9798  78.4630

          k = 0.5000-0.6250 0.3750 (   352 PWs)   bands (ev):

   -36.2652  -5.5654  -3.7861  -2.0777  43.0063  44.8967  47.7656  53.3308
    53.6960  68.4283  74.7297  77.3829

          k = 0.0000 0.0000 0.5000 (   354 PWs)   bands (ev):

   -36.8770  -4.0204  -2.4101  -2.4101  43.3678  45.2061  48.6709  48.6709
    51.1147  59.2563  84.0676  86.8533

          k = 0.0000-0.1250 0.6250 (   359 PWs)   bands (ev):

   -36.0556  -5.3493  -3.1781  -2.6513  41.0646  43.5698  48.5752  50.4316
    54.7724  64.3018  80.5556  84.3890

          k = 0.0000 0.7500-0.2500 (   362 PWs)   bands (ev):

   -35.6936  -6.0483  -3.4816  -2.5968  40.2479  42.8534  48.2553  50.9337
    56.9738  69.0244  75.5361  83.6110

          k =-0.1250 0.8750-0.2500 (   360 PWs)   bands (ev):

   -35.5230  -5.4200  -4.3756  -2.7538  40.0736  41.2763  48.8928  53.3223
    55.7510  70.2452  77.6606  78.6372

          k = 0.5000-0.5000 0.5000 (   360 PWs)   bands (ev):

   -36.1688  -4.0095  -4.0095  -4.0095  45.4466  45.4466  45.4466  53.7280
    53.7280  73.6008  73.6008  73.6008

          k = 0.0000 0.0000 0.7500 (   362 PWs)   bands (ev):

   -35.3859  -4.8288  -3.9961  -3.9961  38.8168  40.3549  52.9947  52.9947
    54.7028  68.6120  80.4625  80.4625

          k = 0.0000 0.8750-0.1250 (   370 PWs)   bands (ev):

   -35.0948  -5.0771  -4.3184  -4.0609  38.1896  38.7016  53.5054  54.3287
    56.5458  73.4904  75.2522  78.0016

          k = 0.0000 0.0000-1.0000 (   370 PWs)   bands (ev):

   -34.8360  -4.6475  -4.6475  -4.6475  37.1722  37.1722  56.3719  56.3719
    56.3719  75.1815  75.1815  75.1815

 ------ SPIN DOWN ----------


          k = 0.0000 0.0000 0.0000 (   369 PWs)   bands (ev):

   -39.1907  -0.1825  -0.1825  -0.1825  41.2714  46.8103  46.8103  46.8103
    52.1962  52.1962  85.4546  85.4546

          k = 0.0000-0.1250 0.1250 (   358 PWs)   bands (ev):

   -38.8391  -1.2881  -0.4984  -0.2066  42.5946  46.0536  46.8071  48.1489
    51.4251  52.2601  85.4109  85.6724

          k = 0.0000-0.2500 0.2500 (   360 PWs)   bands (ev):

   -37.9349  -3.8355  -1.2252  -0.2674  42.4981  44.4213  49.3645  51.4009
    51.6329  52.5782  83.2412  83.8057

          k = 0.0000-0.3750 0.3750 (   360 PWs)   bands (ev):

   -36.9352  -6.2861  -1.9069  -0.3308  40.3044  42.9980  52.1739  53.1648
    55.0063  55.6673  78.7989  80.1828

          k = 0.0000 0.5000-0.5000 (   360 PWs)   bands (ev):

   -36.4866  -7.2920  -2.1778  -0.3576  39.3629  42.4558  52.7410  53.5055
    57.5995  58.0470  76.0366  78.5184

          k =-0.1250-0.1250 0.2500 (   355 PWs)   bands (ev):

   -38.2092  -3.0008  -0.9216  -0.4679  43.7758  45.5008  46.0317  50.6887
    51.3536  52.9526  84.0491  85.7671

          k =-0.1250-0.2500 0.3750 (   360 PWs)   bands (ev):

   -37.2446  -5.2090  -1.8612  -0.6251  42.2269  43.8678  48.8887  51.3050
    53.6031  56.8965  80.9871  82.1576

          k =-0.1250 0.6250-0.5000 (   358 PWs)   bands (ev):

   -36.4984  -6.7481  -2.5485  -0.7017  40.5957  43.0269  50.9595  52.4385
    55.0425  61.7486  76.5906  79.4822

          k =-0.2500 0.7500-0.5000 (   353 PWs)   bands (ev):

   -36.5102  -5.9801  -3.2335  -0.9512  42.2650  43.9144  48.1193  51.8509
    54.2981  63.5005  77.8072  79.5365

          k =-0.2500 0.6250-0.3750 (   355 PWs)   bands (ev):

   -36.1915  -6.0479  -4.1226  -1.0388  42.0013  44.2952  47.7252  52.7232
    54.3220  68.0396  74.2281  78.2209

          k = 0.0000 0.0000 0.2500 (   357 PWs)   bands (ev):

   -38.5016  -1.6626  -0.8284  -0.8284  43.8654  46.9128  46.9128  47.9953
    49.1755  53.5694  84.2762  88.6425

          k = 0.0000-0.1250 0.3750 (   361 PWs)   bands (ev):

   -37.6365  -3.7781  -1.5862  -1.0283  43.7636  45.8106  46.9183  49.5753
    51.2241  55.4826  83.2765  85.6751

          k = 0.0000-0.2500 0.5000 (   362 PWs)   bands (ev):

   -36.6854  -6.0152  -2.2956  -1.0398  41.2292  44.5354  47.8235  51.2961
    55.3903  59.6054  79.1783  81.9294

          k = 0.0000 0.6250-0.3750 (   364 PWs)   bands (ev):

   -36.2607  -6.9416  -2.5771  -1.0406  40.2066  44.0404  48.6260  51.1859
    57.4135  63.0096  75.8807  80.7295

          k =-0.1250-0.1250 0.5000 (   362 PWs)   bands (ev):

   -36.7679  -5.1449  -2.6574  -1.3711  43.3960  43.8909  47.5522  49.7524
    53.8241  59.9520  81.7117  82.6113

          k =-0.1250 0.7500-0.3750 (   360 PWs)   bands (ev):

   -36.1044  -6.1720  -3.5630  -1.3844  41.6690  44.4804  46.1656  51.3349
    55.7634  65.9735  76.8690  80.4496

          k =-0.2500 0.2500 0.2500 (   357 PWs)   bands (ev):

   -37.4702  -4.7627  -1.1472  -1.1472  43.9984  43.9984  46.2720  52.3579
    52.3579  56.9374  82.3399  82.3399

          k =-0.2500 0.7500-0.2500 (   372 PWs)   bands (ev):

   -35.8572  -5.2433  -5.2433  -1.3892  43.4080  43.4080  44.3186  54.0359
    54.0359  72.7790  72.7790  77.6279

          k = 0.6250-0.6250 0.2500 (   354 PWs)   bands (ev):

   -36.6770  -5.9702  -2.4569  -1.3737  42.8461  43.1902  48.9877  52.7979
    53.3052  62.6277  78.1212  79.6842

          k = 0.5000-0.5000 0.2500 (   354 PWs)   bands (ev):

   -36.3301  -6.3660  -3.1200  -1.4676  42.2398  42.9535  50.6251  53.1652
    53.6155  65.8766  74.9800  78.4639

          k = 0.5000-0.6250 0.3750 (   352 PWs)   bands (ev):

   -36.2664  -5.5661  -3.7869  -2.0787  43.0066  44.8967  47.7657  53.3289
    53.6939  68.4285  74.7300  77.3836

          k = 0.0000 0.0000 0.5000 (   354 PWs)   bands (ev):

   -36.8780  -4.0213  -2.4111  -2.4111  43.3670  45.2059  48.6708  48.6708
    51.1144  59.2555  84.0681  86.8543

          k = 0.0000-0.1250 0.6250 (   359 PWs)   bands (ev):

   -36.0567  -5.3500  -3.1790  -2.6523  41.0642  43.5694  48.5752  50.4313
    54.7718  64.3016  80.5561  84.3896

          k = 0.0000 0.7500-0.2500 (   362 PWs)   bands (ev):

   -35.6947  -6.0490  -3.4825  -2.5978  40.2476  42.8528  48.2553  50.9334
    56.9731  69.0244  75.5364  83.6120

          k =-0.1250 0.8750-0.2500 (   360 PWs)   bands (ev):

   -35.5242  -5.4208  -4.3765  -2.7548  40.0732  41.2759  48.8927  53.3219
    55.7503  70.2453  77.6609  78.6380

          k = 0.5000-0.5000 0.5000 (   360 PWs)   bands (ev):

   -36.1700  -4.0103  -4.0103  -4.0103  45.4468  45.4468  45.4468  53.7257
    53.7257  73.6012  73.6012  73.6013

          k = 0.0000 0.0000 0.7500 (   362 PWs)   bands (ev):

   -35.3870  -4.8296  -3.9970  -3.9970  38.8165  40.3545  52.9944  52.9944
    54.7022  68.6123  80.4634  80.4634

          k = 0.0000 0.8750-0.1250 (   370 PWs)   bands (ev):

   -35.0960  -5.0779  -4.3193  -4.0617  38.1893  38.7013  53.5050  54.3282
    56.5450  73.4911  75.2529  78.0026

          k = 0.0000 0.0000-1.0000 (   370 PWs)   bands (ev):

   -34.8372  -4.6484  -4.6484  -4.6484  37.1720  37.1720  56.3712  56.3712
    56.3712  75.1826  75.1826  75.1826

     the Fermi energy is    52.9274 ev

!    total energy              =    -246.76748235 Ry
     estimated scf accuracy    <       0.00000025 Ry
     smearing contrib. (-TS)   =       0.00014284 Ry
     internal energy E=F+TS    =    -246.76762519 Ry

     The total energy is F=E-TS. E is the sum of the following terms:
     one-electron contribution =     -14.57980993 Ry
     hartree contribution      =      35.94378954 Ry
     xc contribution           =     -29.24858863 Ry
     ewald contribution        =    -238.88301617 Ry

     total magnetization       =    -0.00 Bohr mag/cell
     absolute magnetization    =     0.00 Bohr mag/cell

     convergence has been achieved in   9 iterations

     Forces acting on atoms (cartesian axes, Ry/au):

     atom    1 type  1   force =     0.00000000    0.00000000    0.00000000

     Total force =     0.000000     Total SCF correction =     0.000000


     Computing stress (Cartesian axis) and pressure

          total   stress  (Ry/bohr**3)                   (kbar)     P=    15396.52
   0.10466342   0.00000000  -0.00000000        15396.52        0.00       -0.00
   0.00000000   0.10466342   0.00000000            0.00    15396.52        0.00
  -0.00000000   0.00000000   0.10466342           -0.00        0.00    15396.52


     BFGS Geometry Optimization
     Energy error            =      0.0E+00 Ry
     Gradient error          =      0.0E+00 Ry/Bohr
     Cell gradient error     =      1.5E+04 kbar

     number of scf cycles    =   1
     number of bfgs steps    =   0

     enthalpy           new  =    -246.7674823461 Ry

     new trust radius        =       0.5000000000 bohr
ibrav =      3
 celldm(1) =      5.69028719
Input lattice vectors:
     0.72952400     0.72952400     0.72952400
    -0.72952400     0.72952400     0.72952400
    -0.72952400    -0.72952400     0.72952400
New lattice vectors in INITIAL alat:
     0.72952400     0.72952400     0.72952400
    -0.72952400     0.72952400     0.72952400
    -0.72952400    -0.72952400     0.72952400
New lattice vectors in NEW alat (for information only):
     0.50000000     0.50000000     0.50000000
    -0.50000000     0.50000000     0.50000000
    -0.50000000    -0.50000000     0.50000000
Discrepancy in bohr =     0.000000    0.000000    0.000000

Atomic positions rescaled with new alat:
Fe            0.0000000000        0.0000000000        0.0000000000
     new conv_thr            =       0.0000010000 Ry

     new unit-cell volume =     92.12395 a.u.^3 (    13.65136 Ang^3 )
     density =      6.79318 g/cm^3

CELL_PARAMETERS (alat=  3.90000000)
   0.729523998   0.729523998   0.729523998
  -0.729523998   0.729523998   0.729523998
  -0.729523998  -0.729523998   0.729523998

ATOMIC_POSITIONS (alat)
Fe            0.0000000000        0.0000000000        0.0000000000



     Writing config-only to output data dir ./temp/fe.save/
     NEW-OLD atomic charge density approx. for the potential

     Check: negative core charge=   -0.000001
     extrapolated charge   26.84847, renormalised to   16.00000
     Generating pointlists ...

     total cpu time spent up to now is       10.2 secs

     Self-consistent Calculation

     iteration #  1     ecut=    80.00 Ry     beta= 0.70
     Davidson diagonalization with overlap
     ethr =  1.00E-06,  avg # of iterations = 13.6

     negative rho (up, down):  2.032E-03 2.030E-03

     total cpu time spent up to now is       11.6 secs

     total energy              =    -211.32379375 Ry
     estimated scf accuracy    <      14.99524852 Ry

     total magnetization       =     0.00 Bohr mag/cell
     absolute magnetization    =     0.00 Bohr mag/cell

     iteration #  2     ecut=    80.00 Ry     beta= 0.70
     Davidson diagonalization with overlap
     ethr =  1.00E-02,  avg # of iterations =  4.0

     negative rho (up, down):  7.031E-05 6.996E-05

     total cpu time spent up to now is       12.3 secs

     total energy              =    -260.73757747 Ry
     estimated scf accuracy    <      65.42748563 Ry

     total magnetization       =    -0.00 Bohr mag/cell
     absolute magnetization    =     0.00 Bohr mag/cell

     iteration #  3     ecut=    80.00 Ry     beta= 0.70
     Davidson diagonalization with overlap
     ethr =  1.00E-02,  avg # of iterations =  2.0

     total cpu time spent up to now is       12.9 secs

     total energy              =    -246.33882910 Ry
     estimated scf accuracy    <      31.38630396 Ry

     total magnetization       =    -0.01 Bohr mag/cell
     absolute magnetization    =     0.01 Bohr mag/cell

     iteration #  4     ecut=    80.00 Ry     beta= 0.70
     Davidson diagonalization with overlap
     ethr =  1.00E-02,  avg # of iterations =  2.0

     total cpu time spent up to now is       13.4 secs

     total energy              =    -247.96222311 Ry
     estimated scf accuracy    <       4.86657452 Ry

     total magnetization       =    -0.07 Bohr mag/cell
     absolute magnetization    =     0.07 Bohr mag/cell

     iteration #  5     ecut=    80.00 Ry     beta= 0.70
     Davidson diagonalization with overlap
     ethr =  1.00E-02,  avg # of iterations =  1.1

     total cpu time spent up to now is       13.9 secs

     total energy              =    -246.91079263 Ry
     estimated scf accuracy    <       3.14438466 Ry

     total magnetization       =    -0.16 Bohr mag/cell
     absolute magnetization    =     0.16 Bohr mag/cell

     iteration #  6     ecut=    80.00 Ry     beta= 0.70
     Davidson diagonalization with overlap
     ethr =  1.00E-02,  avg # of iterations =  2.0

     total cpu time spent up to now is       14.4 secs

     total energy              =    -247.37139891 Ry
     estimated scf accuracy    <       0.01896313 Ry

     total magnetization       =    -0.34 Bohr mag/cell
     absolute magnetization    =     0.34 Bohr mag/cell

     iteration #  7     ecut=    80.00 Ry     beta= 0.70
     Davidson diagonalization with overlap
     ethr =  1.19E-04,  avg # of iterations =  2.1

     total cpu time spent up to now is       14.9 secs

     total energy              =    -247.77224699 Ry
     estimated scf accuracy    <       0.02539175 Ry

     total magnetization       =    -0.35 Bohr mag/cell
     absolute magnetization    =     0.35 Bohr mag/cell

     iteration #  8     ecut=    80.00 Ry     beta= 0.70
     Davidson diagonalization with overlap
     ethr =  1.19E-04,  avg # of iterations =  6.2

     total cpu time spent up to now is       15.6 secs

     total energy              =    -249.69250598 Ry
     estimated scf accuracy    <       8.16863915 Ry

     total magnetization       =     0.06 Bohr mag/cell
     absolute magnetization    =     0.06 Bohr mag/cell

     iteration #  9     ecut=    80.00 Ry     beta= 0.70
     Davidson diagonalization with overlap
     ethr =  1.19E-04,  avg # of iterations =  3.0

     total cpu time spent up to now is       16.2 secs

     total energy              =    -248.64717634 Ry
     estimated scf accuracy    <       9.86061789 Ry

     total magnetization       =     0.14 Bohr mag/cell
     absolute magnetization    =     0.14 Bohr mag/cell

     iteration # 10     ecut=    80.00 Ry     beta= 0.70
     Davidson diagonalization with overlap
     ethr =  1.19E-04,  avg # of iterations =  4.3

     total cpu time spent up to now is       16.9 secs

     total energy              =    -248.30113980 Ry
     estimated scf accuracy    <       5.98301448 Ry

     total magnetization       =    -0.00 Bohr mag/cell
     absolute magnetization    =     0.01 Bohr mag/cell

     iteration # 11     ecut=    80.00 Ry     beta= 0.70
     Davidson diagonalization with overlap
     ethr =  1.19E-04,  avg # of iterations =  3.2

     total cpu time spent up to now is       17.5 secs

     total energy              =    -247.12479411 Ry
     estimated scf accuracy    <       4.33349979 Ry

     total magnetization       =    -0.18 Bohr mag/cell
     absolute magnetization    =     0.18 Bohr mag/cell

     iteration # 12     ecut=    80.00 Ry     beta= 0.70
     Davidson diagonalization with overlap
     ethr =  1.19E-04,  avg # of iterations =  4.3

     total cpu time spent up to now is       18.1 secs

     total energy              =    -247.24865925 Ry
     estimated scf accuracy    <       0.39230825 Ry

     total magnetization       =    -1.02 Bohr mag/cell
     absolute magnetization    =     1.02 Bohr mag/cell

     iteration # 13     ecut=    80.00 Ry     beta= 0.70
     Davidson diagonalization with overlap
     ethr =  1.19E-04,  avg # of iterations =  3.5

     total cpu time spent up to now is       18.7 secs

     total energy              =    -247.46284206 Ry
     estimated scf accuracy    <       0.35140033 Ry

     total magnetization       =    -1.62 Bohr mag/cell
     absolute magnetization    =     1.62 Bohr mag/cell

     iteration # 14     ecut=    80.00 Ry     beta= 0.70
     Davidson diagonalization with overlap
     ethr =  1.19E-04,  avg # of iterations =  1.0

     negative rho (up, down):  6.112E-05 0.000E+00

     total cpu time spent up to now is       19.2 secs

     total energy              =    -247.56547197 Ry
     estimated scf accuracy    <       0.43726905 Ry

     total magnetization       =    -1.69 Bohr mag/cell
     absolute magnetization    =     1.69 Bohr mag/cell

     iteration # 15     ecut=    80.00 Ry     beta= 0.70
     Davidson diagonalization with overlap
     ethr =  1.19E-04,  avg # of iterations =  2.4

     negative rho (up, down):  3.707E-05 0.000E+00

     total cpu time spent up to now is       19.7 secs

     total energy              =    -247.56639070 Ry
     estimated scf accuracy    <       1.07935845 Ry

     total magnetization       =    -2.02 Bohr mag/cell
     absolute magnetization    =     2.02 Bohr mag/cell

     iteration # 16     ecut=    80.00 Ry     beta= 0.70
     Davidson diagonalization with overlap
     ethr =  1.19E-04,  avg # of iterations =  1.1

     total cpu time spent up to now is       20.2 secs

     total energy              =    -247.49915880 Ry
     estimated scf accuracy    <       0.97061381 Ry

     total magnetization       =    -2.03 Bohr mag/cell
     absolute magnetization    =     2.03 Bohr mag/cell

     iteration # 17     ecut=    80.00 Ry     beta= 0.70
     Davidson diagonalization with overlap
     ethr =  1.19E-04,  avg # of iterations =  2.0

     total cpu time spent up to now is       20.7 secs

     total energy              =    -247.48773222 Ry
     estimated scf accuracy    <       0.63249341 Ry

     total magnetization       =    -2.01 Bohr mag/cell
     absolute magnetization    =     2.02 Bohr mag/cell

     iteration # 18     ecut=    80.00 Ry     beta= 0.70
     Davidson diagonalization with overlap
     ethr =  1.19E-04,  avg # of iterations =  1.1

     total cpu time spent up to now is       21.2 secs

     total energy              =    -247.48515663 Ry
     estimated scf accuracy    <       0.53436451 Ry

     total magnetization       =    -2.00 Bohr mag/cell
     absolute magnetization    =     2.01 Bohr mag/cell

     iteration # 19     ecut=    80.00 Ry     beta= 0.70
     Davidson diagonalization with overlap
     ethr =  1.19E-04,  avg # of iterations =  1.1

     total cpu time spent up to now is       21.6 secs

     total energy              =    -247.67378426 Ry
     estimated scf accuracy    <       0.49306271 Ry

     total magnetization       =    -2.16 Bohr mag/cell
     absolute magnetization    =     2.19 Bohr mag/cell

     iteration # 20     ecut=    80.00 Ry     beta= 0.70
     Davidson diagonalization with overlap
     ethr =  1.19E-04,  avg # of iterations =  3.0

     total cpu time spent up to now is       22.2 secs

     total energy              =    -247.23103611 Ry
     estimated scf accuracy    <       1.61723278 Ry

     total magnetization       =    -2.31 Bohr mag/cell
     absolute magnetization    =     2.35 Bohr mag/cell

     iteration # 21     ecut=    80.00 Ry     beta= 0.70
     Davidson diagonalization with overlap
     ethr =  1.19E-04,  avg # of iterations =  3.2

     negative rho (up, down):  8.727E-05 0.000E+00

     total cpu time spent up to now is       22.8 secs

     total energy              =    -247.39241909 Ry
     estimated scf accuracy    <       0.07105303 Ry

     total magnetization       =    -1.59 Bohr mag/cell
     absolute magnetization    =     1.62 Bohr mag/cell

     iteration # 22     ecut=    80.00 Ry     beta= 0.70
     Davidson diagonalization with overlap
     ethr =  1.19E-04,  avg # of iterations =  2.1

     negative rho (up, down):  1.979E-04 0.000E+00

     total cpu time spent up to now is       23.3 secs

     total energy              =    -247.42105841 Ry
     estimated scf accuracy    <       0.01185352 Ry

     total magnetization       =    -2.00 Bohr mag/cell
     absolute magnetization    =     2.14 Bohr mag/cell

     iteration # 23     ecut=    80.00 Ry     beta= 0.70
     Davidson diagonalization with overlap
     ethr =  7.41E-05,  avg # of iterations =  1.5

     negative rho (up, down):  2.257E-04 0.000E+00

     total cpu time spent up to now is       23.8 secs

     total energy              =    -247.43018291 Ry
     estimated scf accuracy    <       0.00784159 Ry

     total magnetization       =    -2.34 Bohr mag/cell
     absolute magnetization    =     2.50 Bohr mag/cell

     iteration # 24     ecut=    80.00 Ry     beta= 0.70
     Davidson diagonalization with overlap
     ethr =  4.90E-05,  avg # of iterations =  1.6

     negative rho (up, down):  3.911E-04 0.000E+00

     total cpu time spent up to now is       24.2 secs

     total energy              =    -247.42592449 Ry
     estimated scf accuracy    <       0.01339709 Ry

     total magnetization       =    -2.55 Bohr mag/cell
     absolute magnetization    =     2.73 Bohr mag/cell

     iteration # 25     ecut=    80.00 Ry     beta= 0.70
     Davidson diagonalization with overlap
     ethr =  4.90E-05,  avg # of iterations =  1.7

     negative rho (up, down):  3.686E-04 0.000E+00

     total cpu time spent up to now is       24.7 secs

     total energy              =    -247.43631762 Ry
     estimated scf accuracy    <       0.00281905 Ry

     total magnetization       =    -2.79 Bohr mag/cell
     absolute magnetization    =     3.04 Bohr mag/cell

     iteration # 26     ecut=    80.00 Ry     beta= 0.70
     Davidson diagonalization with overlap
     ethr =  1.76E-05,  avg # of iterations =  1.1

     negative rho (up, down):  3.310E-04 0.000E+00

     total cpu time spent up to now is       25.2 secs

     total energy              =    -247.43685405 Ry
     estimated scf accuracy    <       0.00074003 Ry

     total magnetization       =    -2.78 Bohr mag/cell
     absolute magnetization    =     3.02 Bohr mag/cell

     iteration # 27     ecut=    80.00 Ry     beta= 0.70
     Davidson diagonalization with overlap
     ethr =  4.63E-06,  avg # of iterations =  1.7

     negative rho (up, down):  3.298E-04 0.000E+00

     total cpu time spent up to now is       25.7 secs

     total energy              =    -247.43716464 Ry
     estimated scf accuracy    <       0.00000426 Ry

     total magnetization       =    -2.73 Bohr mag/cell
     absolute magnetization    =     2.95 Bohr mag/cell

     iteration # 28     ecut=    80.00 Ry     beta= 0.70
     Davidson diagonalization with overlap
     ethr =  2.66E-08,  avg # of iterations =  2.3

     negative rho (up, down):  3.298E-04 0.000E+00

     total cpu time spent up to now is       26.2 secs

     total energy              =    -247.43716698 Ry
     estimated scf accuracy    <       0.00000151 Ry

     total magnetization       =    -2.72 Bohr mag/cell
     absolute magnetization    =     2.95 Bohr mag/cell

     iteration # 29     ecut=    80.00 Ry     beta= 0.70
     Davidson diagonalization with overlap
     ethr =  9.44E-09,  avg # of iterations =  1.1

     negative rho (up, down):  3.306E-04 0.000E+00

     Magnetic moment per site  (integrated on atomic sphere of radius R)
     atom   1 (R=0.357)  charge= 12.6017  magn= -2.5520

     total cpu time spent up to now is       26.6 secs

     End of self-consistent calculation

 ------ SPIN UP ------------


          k = 0.0000 0.0000 0.0000 (   369 PWs)   bands (ev):

   -70.8200 -36.5941 -36.5941 -36.5941   7.1251  15.0586  15.0586  15.0586
    16.4060  16.4060  41.6131  41.6131

          k = 0.0000-0.0857 0.0857 (   358 PWs)   bands (ev):

   -70.8102 -36.5840 -36.5525 -36.5431   7.6890  14.9572  15.0672  15.4481
    16.3155  16.6593  34.0354  36.0545

          k = 0.0000-0.1713 0.1713 (   360 PWs)   bands (ev):

   -70.7973 -36.6757 -36.6053 -36.5286   9.2364  14.5144  14.6536  16.1860
    16.3679  16.7275  28.9376  33.6448

          k = 0.0000-0.2570 0.2570 (   360 PWs)   bands (ev):

   -70.7829 -36.7427 -36.6154 -36.5391  11.1934  14.1567  14.5644  16.5260
    16.7854  17.0194  24.3369  31.7339

          k = 0.0000 0.3427-0.3427 (   360 PWs)   bands (ev):

   -70.7766 -36.7629 -36.6374 -36.5217  12.0320  14.0206  14.9834  16.5534
    16.9849  17.4081  22.0446  31.0363

          k =-0.0857-0.0857 0.1713 (   355 PWs)   bands (ev):

   -70.7996 -36.6089 -36.5648 -36.5431   8.7487  14.7442  14.8161  16.0360
    16.2282  16.7609  31.4185  32.3172

          k =-0.0857-0.1713 0.2570 (   360 PWs)   bands (ev):

   -70.7868 -36.7254 -36.6064 -36.5314  10.5841  14.2652  14.3977  16.3396
    16.8092  16.9855  26.7107  29.9605

          k =-0.0857 0.4284-0.3427 (   358 PWs)   bands (ev):

   -70.7760 -36.7279 -36.6424 -36.5311  12.1464  14.0478  14.4180  16.5037
    17.0007  17.9895  22.8143  28.7845

          k =-0.1713 0.5140-0.3427 (   353 PWs)   bands (ev):

   -70.7737 -36.6740 -36.6074 -36.5454  12.2878  13.9269  14.2605  16.3926
    16.9972  18.5061  25.0334  25.4301

          k =-0.1713 0.4284-0.2570 (   355 PWs)   bands (ev):

   -70.7707 -36.6844 -36.6459 -36.5584  13.0739  13.9428  13.9753  16.5665
    16.9893  20.0573  22.1712  24.6549

          k = 0.0000 0.0000 0.1713 (   357 PWs)   bands (ev):

   -70.8045 -36.5719 -36.5719 -36.5658   8.2296  15.1189  15.1189  15.4203
    15.9716  16.8128  33.4864  35.0439

          k = 0.0000-0.0857 0.2570 (   361 PWs)   bands (ev):

   -70.7918 -36.6668 -36.5876 -36.5853   9.7196  14.7593  14.8135  15.7288
    16.1865  16.9307  29.3540  32.7099

          k = 0.0000-0.1713 0.3427 (   362 PWs)   bands (ev):

   -70.7783 -36.7168 -36.6387 -36.5789  11.5864  14.2935  14.4925  16.0384
    16.9866  17.3267  24.6237  31.2720

          k = 0.0000 0.4284-0.2570 (   364 PWs)   bands (ev):

   -70.7729 -36.7469 -36.6714 -36.5666  12.4029  14.2919  14.3300  16.1243
    17.4123  18.0131  22.0862  30.0123

          k =-0.0857-0.0857 0.3427 (   362 PWs)   bands (ev):

   -70.7785 -36.7040 -36.6312 -36.5854  11.3563  14.2034  14.8192  15.7735
    16.6967  17.4802  27.2985  27.6234

          k =-0.0857 0.5140-0.2570 (   360 PWs)   bands (ev):

   -70.7685 -36.7270 -36.6501 -36.5790  12.7812  13.8169  14.5885  16.1142
    17.0734  18.9255  23.1534  26.2816

          k =-0.1713 0.1713 0.1713 (   357 PWs)   bands (ev):

   -70.7902 -36.7230 -36.5488 -36.5488  10.2033  14.2570  14.2570  16.6658
    16.6658  16.9587  29.2645  29.2645

          k =-0.1713 0.5140-0.1713 (   372 PWs)   bands (ev):

   -70.7688 -36.7498 -36.7498 -36.6223  13.5191  13.5191  14.0550  16.5974
    16.5974  21.6406  21.6406  23.2888

          k = 0.4284-0.4284 0.1713 (   354 PWs)   bands (ev):

   -70.7782 -36.6951 -36.6074 -36.5430  12.0389  13.9503  14.0060  16.6582
    16.9269  18.2909  24.8846  27.8693

          k = 0.3427-0.3427 0.1713 (   354 PWs)   bands (ev):

   -70.7738 -36.6983 -36.6369 -36.5339  12.7853  13.8467  14.1569  16.7368
    17.0494  19.3901  22.1640  27.8686

          k = 0.3427-0.4284 0.2570 (   352 PWs)   bands (ev):

   -70.7730 -36.6750 -36.6123 -36.5657  13.2670  13.7204  13.8034  16.9341
    16.9638  20.2325  23.5118  24.1126

          k = 0.0000 0.0000 0.3427 (   354 PWs)   bands (ev):

   -70.7764 -36.6324 -36.5894 -36.5894  11.0081  14.6703  15.3681  15.3681
    16.3104  17.3518  29.9486  29.9486

          k = 0.0000-0.0857 0.4284 (   359 PWs)   bands (ev):

   -70.7652 -36.6937 -36.6464 -36.6048  12.4241  13.8238  15.4558  15.7920
    16.9352  18.1907  25.4449  27.8346

          k = 0.0000 0.5140-0.1713 (   362 PWs)   bands (ev):

   -70.7615 -36.7531 -36.6770 -36.5928  13.0610  13.4439  15.3723  15.8945
    17.3347  19.9468  22.2059  26.9643

          k =-0.0857 0.5997-0.1713 (   360 PWs)   bands (ev):

   -70.7575 -36.7182 -36.6911 -36.6044  13.0973  13.3503  15.3799  16.5340
    17.0766  20.3103  23.8884  24.2823

          k = 0.3427-0.3427 0.3427 (   360 PWs)   bands (ev):

   -70.7755 -36.6581 -36.6581 -36.6581  13.6243  13.6243  13.6243  16.9217
    16.9217  22.9384  22.9384  22.9384

          k = 0.0000 0.0000 0.5140 (   362 PWs)   bands (ev):

   -70.7550 -36.6971 -36.6971 -36.6564  12.8200  13.2619  16.4282  16.4282
    16.9028  19.5820  25.4601  25.4601

          k = 0.0000 0.5997-0.0857 (   370 PWs)   bands (ev):

   -70.7541 -36.7561 -36.7329 -36.7099  12.8802  12.9184  16.4996  16.6402
    17.2312  22.0609  22.7290  24.4319

          k = 0.0000 0.0000-0.6854 (   370 PWs)   bands (ev):

   -70.7513 -36.7557 -36.7557 -36.7557  12.7058  12.7058  17.1823  17.1823
    17.1823  23.3184  23.3184  23.3184

 ------ SPIN DOWN ----------


          k = 0.0000 0.0000 0.0000 (   369 PWs)   bands (ev):

   -74.3291 -40.0148 -40.0148 -40.0148   7.0687  12.3414  12.3414  12.3414
    13.1230  13.1230  41.6222  41.6222

          k = 0.0000-0.0857 0.0857 (   358 PWs)   bands (ev):

   -74.3187 -40.0019 -39.9658 -39.9630   7.6272  12.2919  12.3993  12.6955
    13.0869  13.3855  33.8493  36.2375

          k = 0.0000-0.1713 0.1713 (   360 PWs)   bands (ev):

   -74.3073 -40.0775 -40.0196 -39.9474   9.0798  11.9477  12.2284  13.2188
    13.3063  13.4339  28.2266  33.6759

          k = 0.0000-0.2570 0.2570 (   360 PWs)   bands (ev):

   -74.2942 -40.1316 -40.0261 -39.9577  10.2960  11.6826  13.1927  13.4536
    13.4923  13.9658  23.1366  31.8065

          k = 0.0000 0.3427-0.3427 (   360 PWs)   bands (ev):

   -74.2882 -40.1461 -40.0464 -39.9403  10.4315  11.5828  13.3855  13.6400
    14.2616  15.0060  20.2722  31.1421

          k =-0.0857-0.0857 0.1713 (   355 PWs)   bands (ev):

   -74.3088 -40.0136 -39.9806 -39.9608   8.6514  12.1669  12.2462  13.0718
    13.2221  13.4720  30.9782  31.8231

          k =-0.0857-0.1713 0.2570 (   360 PWs)   bands (ev):

   -74.2977 -40.1204 -40.0178 -39.9479  10.1590  11.8403  12.1611  13.2225
    13.5497  14.1255  25.8302  29.4135

          k =-0.0857 0.4284-0.3427 (   358 PWs)   bands (ev):

   -74.2876 -40.1136 -40.0504 -39.9477  10.6748  11.6466  12.9242  13.3660
    13.7997  15.8083  21.3654  28.2491

          k =-0.1713 0.5140-0.3427 (   353 PWs)   bands (ev):

   -74.2848 -40.0652 -40.0114 -39.9584  11.1094  11.7665  12.2043  13.2685
    13.7570  16.2112  23.9993  24.5868

          k =-0.1713 0.4284-0.2570 (   355 PWs)   bands (ev):

   -74.2825 -40.0736 -40.0461 -39.9731  11.1858  11.7607  12.2686  13.4136
    13.7980  18.5440  20.7137  23.7647

          k = 0.0000 0.0000 0.1713 (   357 PWs)   bands (ev):

   -74.3134 -39.9881 -39.9881 -39.9775   8.1564  12.4626  12.4626  12.6565
    12.8788  13.4971  33.4774  34.5430

          k = 0.0000-0.0857 0.2570 (   361 PWs)   bands (ev):

   -74.3025 -40.0684 -40.0034 -39.9977   9.5235  12.2155  12.2241  12.8086
    13.3221  13.6670  28.6519  32.4937

          k = 0.0000-0.1713 0.3427 (   362 PWs)   bands (ev):

   -74.2902 -40.1068 -40.0473 -39.9944  10.6167  11.9823  12.2606  13.0960
    13.9453  14.7274  23.4950  31.0679

          k = 0.0000 0.4284-0.2570 (   364 PWs)   bands (ev):

   -74.2855 -40.1318 -40.0790 -39.9824  10.6890  11.8471  12.5576  13.1096
    14.2735  16.4671  20.4134  29.3415

          k =-0.0857-0.0857 0.3427 (   362 PWs)   bands (ev):

   -74.2903 -40.0996 -40.0384 -39.9975  10.7173  11.7608  12.3572  12.9100
    13.6570  14.7572  26.4239  26.8733

          k =-0.0857 0.5140-0.2570 (   360 PWs)   bands (ev):

   -74.2812 -40.1163 -40.0522 -39.9917  11.1279  11.7912  12.1948  13.1907
    14.0192  17.1518  21.9104  25.4918

          k =-0.1713 0.1713 0.1713 (   357 PWs)   bands (ev):

   -74.3006 -40.1203 -39.9632 -39.9632   9.9841  11.8230  11.8230  13.4137
    13.4137  14.1426  28.6918  28.6918

          k =-0.1713 0.5140-0.1713 (   372 PWs)   bands (ev):

   -74.2830 -40.1450 -40.1450 -40.0363  11.4724  11.4724  11.7805  13.6012
    13.6012  20.3910  20.3910  22.2411

          k = 0.4284-0.4284 0.1713 (   354 PWs)   bands (ev):

   -74.2893 -40.0859 -40.0147 -39.9568  11.0729  11.6342  12.0930  13.4130
    13.6026  15.8789  23.8771  27.2545

          k = 0.3427-0.3427 0.1713 (   354 PWs)   bands (ev):

   -74.2852 -40.0862 -40.0420 -39.9473  11.0549  11.5736  12.6478  13.4899
    13.7004  17.7913  20.6174  27.1905

          k = 0.3427-0.4284 0.2570 (   352 PWs)   bands (ev):

   -74.2842 -40.0674 -40.0140 -39.9761  11.4294  11.7346  12.0012  13.6299
    13.6403  18.5819  22.3993  23.1924

          k = 0.0000 0.0000 0.3427 (   354 PWs)   bands (ev):

   -74.2874 -40.0313 -39.9968 -39.9968  10.5456  12.0085  12.7486  12.7486
    13.4234  14.4512  29.1779  29.1779

          k = 0.0000-0.0857 0.4284 (   359 PWs)   bands (ev):

   -74.2781 -40.0885 -40.0500 -40.0089  11.1146  11.4631  12.8378  13.0722
    13.9171  16.2529  24.5178  27.1259

          k = 0.0000 0.5140-0.1713 (   362 PWs)   bands (ev):

   -74.2752 -40.1433 -40.0791 -39.9988  11.0106  11.4664  12.7631  13.1761
    14.2116  18.7963  20.8836  26.3282

          k =-0.0857 0.5997-0.1713 (   360 PWs)   bands (ev):

   -74.2713 -40.1111 -40.0887 -40.0088  11.1267  11.1708  12.8299  13.6827
    14.0440  19.0826  22.9520  23.4950

          k = 0.3427-0.3427 0.3427 (   360 PWs)   bands (ev):

   -74.2878 -40.0601 -40.0601 -40.0601  11.6839  11.6839  11.6839  13.5597
    13.5597  21.8138  21.8138  21.8138

          k = 0.0000 0.0000 0.5140 (   362 PWs)   bands (ev):

   -74.2693 -40.0963 -40.0963 -40.0513  10.9470  10.9541  13.6331  13.6331
    13.8640  18.4543  24.8833  24.8833

          k = 0.0000 0.5997-0.0857 (   370 PWs)   bands (ev):

   -74.2697 -40.1509 -40.1311 -40.1094  10.7230  10.7487  13.6119  13.7535
    14.1223  21.3764  22.0300  23.9877

          k = 0.0000 0.0000-0.6854 (   370 PWs)   bands (ev):

   -74.2677 -40.1523 -40.1523 -40.1523  10.5240  10.5240  14.0791  14.0791
    14.0791  23.0583  23.0583  23.0583

     the Fermi energy is    14.7942 ev

!    total energy              =    -247.43716761 Ry
     estimated scf accuracy    <       0.00000080 Ry
     smearing contrib. (-TS)   =      -0.00030305 Ry
     internal energy E=F+TS    =    -247.43686456 Ry

     The total energy is F=E-TS. E is the sum of the following terms:
     one-electron contribution =    -126.70169291 Ry
     hartree contribution      =      70.65910818 Ry
     xc contribution           =     -27.66901734 Ry
     ewald contribution        =    -163.72526250 Ry

     total magnetization       =    -2.72 Bohr mag/cell
     absolute magnetization    =     2.95 Bohr mag/cell

     convergence has been achieved in  29 iterations

     negative rho (up, down):  3.306E-04 0.000E+00

     Forces acting on atoms (cartesian axes, Ry/au):

     atom    1 type  1   force =     0.00000000    0.00000000    0.00000000

     Total force =     0.000000     Total SCF correction =     0.000000


     Computing stress (Cartesian axis) and pressure


     negative rho (up, down):  3.306E-04 0.000E+00
          total   stress  (Ry/bohr**3)                   (kbar)     P=    -3795.34
  -0.02580020  -0.00000000   0.00000000        -3795.34       -0.00        0.00
  -0.00000000  -0.02580020  -0.00000000           -0.00    -3795.34       -0.00
   0.00000000  -0.00000000  -0.02580020            0.00       -0.00    -3795.34

     Energy error            =      6.7E-01 Ry
     Gradient error          =      0.0E+00 Ry/Bohr
     Cell gradient error     =      3.8E+03 kbar

     number of scf cycles    =   2
     number of bfgs steps    =   1

     enthalpy           old  =    -246.7674823461 Ry
     enthalpy           new  =    -247.4371676137 Ry

     CASE: enthalpy          _new < enthalpy          _old

     new trust radius        =       0.2078587429 bohr
ibrav =      3
 celldm(1) =      5.07413754
Input lattice vectors:
     0.65053045     0.65053045     0.65053045
    -0.65053045     0.65053045     0.65053045
    -0.65053045    -0.65053045     0.65053045
New lattice vectors in INITIAL alat:
     0.65053045     0.65053045     0.65053045
    -0.65053045     0.65053045     0.65053045
    -0.65053045    -0.65053045     0.65053045
New lattice vectors in NEW alat (for information only):
     0.50000000     0.50000000     0.50000000
    -0.50000000     0.50000000     0.50000000
    -0.50000000    -0.50000000     0.50000000
Discrepancy in bohr =     0.000000    0.000000    0.000000

Atomic positions rescaled with new alat:
Fe            0.0000000000        0.0000000000        0.0000000000
     new conv_thr            =       0.0000000100 Ry

     new unit-cell volume =     65.32158 a.u.^3 (     9.67966 Ang^3 )
     density =      9.58051 g/cm^3

CELL_PARAMETERS (alat=  3.90000000)
   0.650530453   0.650530453   0.650530453
  -0.650530453   0.650530453   0.650530453
  -0.650530453  -0.650530453   0.650530453

ATOMIC_POSITIONS (alat)
Fe            0.0000000000        0.0000000000        0.0000000000



     Writing config-only to output data dir ./temp/fe.save/
     NEW-OLD atomic charge density approx. for the potential

     Check: negative core charge=   -0.000002

     negative rho (up, down):  4.243E-03 0.000E+00
     extrapolated charge    9.43515, renormalised to   16.00000
     Generating pointlists ...

     total cpu time spent up to now is       29.6 secs

     Self-consistent Calculation

     iteration #  1     ecut=    80.00 Ry     beta= 0.70
     Davidson diagonalization with overlap
     ethr =  1.00E-06,  avg # of iterations =  8.0

     total cpu time spent up to now is       30.5 secs

     total energy              =    -227.26950097 Ry
     estimated scf accuracy    <      25.60671153 Ry

     total magnetization       =    -2.00 Bohr mag/cell
     absolute magnetization    =     2.00 Bohr mag/cell

     iteration #  2     ecut=    80.00 Ry     beta= 0.70
     Davidson diagonalization with overlap
     ethr =  1.00E-02,  avg # of iterations =  4.4

     negative rho (up, down):  2.894E-04 0.000E+00

     total cpu time spent up to now is       31.2 secs

     total energy              =    -245.06603819 Ry
     estimated scf accuracy    <      41.41382281 Ry

     total magnetization       =    -0.26 Bohr mag/cell
     absolute magnetization    =     0.32 Bohr mag/cell

     iteration #  3     ecut=    80.00 Ry     beta= 0.70
     Davidson diagonalization with overlap
     ethr =  1.00E-02,  avg # of iterations =  4.3

     negative rho (up, down):  2.545E-04 0.000E+00

     total cpu time spent up to now is       31.9 secs

     total energy              =    -247.15107397 Ry
     estimated scf accuracy    <       3.68043326 Ry

     total magnetization       =    -1.30 Bohr mag/cell
     absolute magnetization    =     1.32 Bohr mag/cell

     iteration #  4     ecut=    80.00 Ry     beta= 0.70
     Davidson diagonalization with overlap
     ethr =  1.00E-02,  avg # of iterations =  2.4

     negative rho (up, down):  7.733E-05 0.000E+00

     total cpu time spent up to now is       32.4 secs

     total energy              =    -247.80074609 Ry
     estimated scf accuracy    <       0.03798683 Ry

     total magnetization       =    -1.73 Bohr mag/cell
     absolute magnetization    =     1.78 Bohr mag/cell

     iteration #  5     ecut=    80.00 Ry     beta= 0.70
     Davidson diagonalization with overlap
     ethr =  2.37E-04,  avg # of iterations =  2.3

     negative rho (up, down):  5.154E-05 0.000E+00

     total cpu time spent up to now is       32.9 secs

     total energy              =    -247.71069333 Ry
     estimated scf accuracy    <       0.20084078 Ry

     total magnetization       =    -1.70 Bohr mag/cell
     absolute magnetization    =     1.77 Bohr mag/cell

     iteration #  6     ecut=    80.00 Ry     beta= 0.70
     Davidson diagonalization with overlap
     ethr =  2.37E-04,  avg # of iterations =  3.0

     negative rho (up, down):  5.855E-05 0.000E+00

     total cpu time spent up to now is       33.5 secs

     total energy              =    -247.77810046 Ry
     estimated scf accuracy    <       0.04185177 Ry

     total magnetization       =    -1.94 Bohr mag/cell
     absolute magnetization    =     2.02 Bohr mag/cell

     iteration #  7     ecut=    80.00 Ry     beta= 0.70
     Davidson diagonalization with overlap
     ethr =  2.37E-04,  avg # of iterations =  1.0

     negative rho (up, down):  6.993E-05 0.000E+00

     total cpu time spent up to now is       34.0 secs

     total energy              =    -247.76827709 Ry
     estimated scf accuracy    <       0.01885725 Ry

     total magnetization       =    -1.94 Bohr mag/cell
     absolute magnetization    =     2.02 Bohr mag/cell

     iteration #  8     ecut=    80.00 Ry     beta= 0.70
     Davidson diagonalization with overlap
     ethr =  1.18E-04,  avg # of iterations =  2.2

     negative rho (up, down):  6.630E-05 0.000E+00

     total cpu time spent up to now is       34.5 secs

     total energy              =    -247.77425728 Ry
     estimated scf accuracy    <       0.00620996 Ry

     total magnetization       =    -1.98 Bohr mag/cell
     absolute magnetization    =     2.07 Bohr mag/cell

     iteration #  9     ecut=    80.00 Ry     beta= 0.70
     Davidson diagonalization with overlap
     ethr =  3.88E-05,  avg # of iterations =  1.2

     negative rho (up, down):  6.958E-05 0.000E+00

     total cpu time spent up to now is       35.0 secs

     total energy              =    -247.77522055 Ry
     estimated scf accuracy    <       0.00002140 Ry

     total magnetization       =    -1.99 Bohr mag/cell
     absolute magnetization    =     2.08 Bohr mag/cell

     iteration # 10     ecut=    80.00 Ry     beta= 0.70
     Davidson diagonalization with overlap
     ethr =  1.34E-07,  avg # of iterations =  2.7

     negative rho (up, down):  6.997E-05 0.000E+00

     total cpu time spent up to now is       35.5 secs

     total energy              =    -247.77524880 Ry
     estimated scf accuracy    <       0.00003423 Ry

     total magnetization       =    -1.99 Bohr mag/cell
     absolute magnetization    =     2.08 Bohr mag/cell

     iteration # 11     ecut=    80.00 Ry     beta= 0.70
     Davidson diagonalization with overlap
     ethr =  1.34E-07,  avg # of iterations =  1.8

     negative rho (up, down):  7.086E-05 0.000E+00

     total cpu time spent up to now is       36.0 secs

     total energy              =    -247.77525031 Ry
     estimated scf accuracy    <       0.00000340 Ry

     total magnetization       =    -1.99 Bohr mag/cell
     absolute magnetization    =     2.08 Bohr mag/cell

     iteration # 12     ecut=    80.00 Ry     beta= 0.70
     Davidson diagonalization with overlap
     ethr =  2.12E-08,  avg # of iterations =  2.2

     negative rho (up, down):  7.058E-05 0.000E+00

     total cpu time spent up to now is       36.5 secs

     total energy              =    -247.77525152 Ry
     estimated scf accuracy    <       0.00000034 Ry

     total magnetization       =    -1.99 Bohr mag/cell
     absolute magnetization    =     2.08 Bohr mag/cell

     iteration # 13     ecut=    80.00 Ry     beta= 0.70
     Davidson diagonalization with overlap
     ethr =  2.14E-09,  avg # of iterations =  1.3

     negative rho (up, down):  7.064E-05 0.000E+00

     total cpu time spent up to now is       36.9 secs

     total energy              =    -247.77525152 Ry
     estimated scf accuracy    <       0.00000009 Ry

     total magnetization       =    -1.99 Bohr mag/cell
     absolute magnetization    =     2.08 Bohr mag/cell

     iteration # 14     ecut=    80.00 Ry     beta= 0.70
     Davidson diagonalization with overlap
     ethr =  5.36E-10,  avg # of iterations =  1.7

     negative rho (up, down):  7.064E-05 0.000E+00

     Magnetic moment per site  (integrated on atomic sphere of radius R)
     atom   1 (R=0.357)  charge= 12.6624  magn= -1.8576

     total cpu time spent up to now is       37.4 secs

     End of self-consistent calculation

 ------ SPIN UP ------------


          k = 0.0000 0.0000 0.0000 (   369 PWs)   bands (ev):

   -63.5710 -29.2262 -29.2262 -29.2262  12.9180  21.3914  21.3914  21.3914
    23.8430  23.8430  55.0705  55.0705

          k = 0.0000-0.0961 0.0961 (   358 PWs)   bands (ev):

   -63.5467 -29.3384 -29.2615 -29.2233  13.6525  21.1402  21.3284  21.8710
    23.5975  23.8945  45.5129  47.3148

          k = 0.0000-0.1922 0.1922 (   360 PWs)   bands (ev):

   -63.4878 -29.6191 -29.3494 -29.2247  15.5419  20.5397  21.0060  23.0964
    23.4485  23.9827  40.4811  44.8838

          k = 0.0000-0.2882 0.2882 (   360 PWs)   bands (ev):

   -63.4285 -29.8896 -29.4356 -29.2270  17.2270  19.9927  21.5444  23.6517
    24.1297  24.5210  35.2645  42.5484

          k = 0.0000 0.3843-0.3843 (   360 PWs)   bands (ev):

   -63.4038 -29.9992 -29.4721 -29.2262  17.5319  19.7780  22.8313  23.7409
    24.2322  25.1984  32.5703  41.6511

          k =-0.0961-0.0961 0.1922 (   355 PWs)   bands (ev):

   -63.5051 -29.5281 -29.3031 -29.2508  14.9898  20.8322  20.9149  22.8229
    23.3129  24.0372  42.8353  44.1906

          k =-0.0961-0.1922 0.2882 (   360 PWs)   bands (ev):

   -63.4459 -29.7749 -29.4110 -29.2621  16.9961  20.2352  20.6248  23.3676
    24.1237  24.5075  37.9751  41.4696

          k =-0.0961 0.4804-0.3843 (   358 PWs)   bands (ev):

   -63.4039 -29.9364 -29.4971 -29.2656  17.9007  19.8718  21.4295  23.6431
    24.3637  26.1618  33.4101  40.0252

          k =-0.1922 0.5765-0.3843 (   353 PWs)   bands (ev):

   -63.4039 -29.8511 -29.5427 -29.3019  18.5214  19.8185  20.4347  23.5125
    24.2688  26.8629  35.6611  36.7045

          k =-0.1922 0.4804-0.2882 (   355 PWs)   bands (ev):

   -63.3865 -29.8505 -29.6420 -29.3120  18.8823  19.8346  20.4733  23.7635
    24.2279  29.2218  32.4272  35.6032

          k = 0.0000 0.0000 0.1922 (   357 PWs)   bands (ev):

   -63.5235 -29.3719 -29.2977 -29.2977  14.3493  21.3861  21.3861  21.8658
    22.9143  24.2032  44.5730  47.2911

          k = 0.0000-0.0961 0.2882 (   361 PWs)   bands (ev):

   -63.4670 -29.6106 -29.3873 -29.3151  16.1336  20.9921  21.0589  22.5372
    22.9900  24.4702  40.9237  44.2924

          k = 0.0000-0.1922 0.3843 (   362 PWs)   bands (ev):

   -63.4103 -29.8611 -29.4789 -29.3105  17.7436  20.5099  20.7563  23.0633
    24.4389  25.1389  35.5981  42.4370

          k = 0.0000 0.4804-0.2882 (   364 PWs)   bands (ev):

   -63.3866 -29.9644 -29.5169 -29.3073  18.0262  20.3118  21.1280  23.1792
    25.1454  26.3557  32.5704  41.7613

          k =-0.0961-0.0961 0.3843 (   362 PWs)   bands (ev):

   -63.4129 -29.7671 -29.5021 -29.3602  17.8050  20.2486  21.1067  22.5744
    23.9574  25.3228  38.5444  39.3111

          k =-0.0961 0.5765-0.2882 (   360 PWs)   bands (ev):

   -63.3745 -29.8826 -29.6043 -29.3627  18.7117  19.9851  20.7294  23.1048
    24.5414  27.7475  33.7781  37.5143

          k =-0.1922 0.1922 0.1922 (   357 PWs)   bands (ev):

   -63.4607 -29.7325 -29.3160 -29.3160  16.7126  20.2092  20.2092  23.8451
    23.8451  24.4729  40.5110  40.5110

          k =-0.1922 0.5765-0.1922 (   372 PWs)   bands (ev):

   -63.3597 -29.7846 -29.7846 -29.3734  19.5785  19.5785  20.1279  23.9429
    23.9429  31.5701  31.5701  34.2542

          k = 0.4804-0.4804 0.1922 (   354 PWs)   bands (ev):

   -63.4161 -29.8505 -29.4591 -29.3292  18.3747  19.7461  20.2072  23.9001
    24.1610  26.5607  35.7100  38.8072

          k = 0.3843-0.3843 0.1922 (   354 PWs)   bands (ev):

   -63.3976 -29.8805 -29.5385 -29.3340  18.5369  19.5900  20.9886  23.9839
    24.2684  28.2506  32.5585  38.1768

          k = 0.3843-0.4804 0.2882 (   352 PWs)   bands (ev):

   -63.3951 -29.7890 -29.5859 -29.4022  19.2009  19.6941  20.0737  24.1196
    24.2453  29.4915  33.7087  35.1328

          k = 0.0000 0.0000 0.3843 (   354 PWs)   bands (ev):

   -63.4167 -29.6296 -29.4817 -29.4817  17.5004  20.7517  21.8833  21.8833
    23.0570  25.1316  41.9636  42.1261

          k = 0.0000-0.0961 0.4804 (   359 PWs)   bands (ev):

   -63.3661 -29.7955 -29.5788 -29.5053  18.5640  19.6647  21.9107  22.5819
    24.2602  26.7425  36.5608  39.4958

          k = 0.0000 0.5765-0.1922 (   362 PWs)   bands (ev):

   -63.3450 -29.8835 -29.6195 -29.4961  18.7295  19.4324  21.8040  22.7607
    25.0043  29.2641  32.6637  38.3736

          k =-0.0961 0.6725-0.1922 (   360 PWs)   bands (ev):

   -63.3328 -29.8183 -29.7099 -29.5297  18.8652  18.9725  21.9418  23.6210
    24.5518  29.8520  34.4683  35.1983

          k = 0.3843-0.3843 0.3843 (   360 PWs)   bands (ev):

   -63.3914 -29.6066 -29.6066 -29.6066  19.6939  19.6939  19.6939  24.2798
    24.2798  33.0130  33.0130  33.0130

          k = 0.0000 0.0000 0.5765 (   362 PWs)   bands (ev):

   -63.3217 -29.7489 -29.6811 -29.6811  18.4893  18.7637  23.4635  23.4635
    24.2755  28.9328  36.4367  36.4367

          k = 0.0000 0.6725-0.0961 (   370 PWs)   bands (ev):

   -63.3032 -29.8017 -29.7244 -29.6879  18.3390  18.3603  23.7187  23.9596
    24.8627  32.0677  33.1038  35.0892

          k = 0.0000 0.0000-0.7686 (   370 PWs)   bands (ev):

   -63.2858 -29.7677 -29.7677 -29.7677  17.9962  17.9962  24.8035  24.8035
    24.8035  33.5752  33.5752  33.5752

 ------ SPIN DOWN ----------


          k = 0.0000 0.0000 0.0000 (   369 PWs)   bands (ev):

   -66.1398 -31.7443 -31.7443 -31.7443  12.7421  19.5613  19.5613  19.5613
    21.1448  21.1448  48.1629  54.8143

          k = 0.0000-0.0961 0.0961 (   358 PWs)   bands (ev):

   -66.1174 -31.8448 -31.7761 -31.7412  13.4672  19.3505  19.5267  20.0059
    20.9661  21.1961  45.2892  47.3472

          k = 0.0000-0.1922 0.1922 (   360 PWs)   bands (ev):

   -66.0632 -32.0992 -31.8569 -31.7420  15.2433  18.8345  19.3714  20.9532
    21.1271  21.2683  39.7806  44.7636

          k = 0.0000-0.2882 0.2882 (   360 PWs)   bands (ev):

   -66.0085 -32.3445 -31.9359 -31.7439  16.3198  18.3597  20.6533  21.2940
    21.3786  22.4073  34.1914  42.4527

          k = 0.0000 0.3843-0.3843 (   360 PWs)   bands (ev):

   -65.9858 -32.4439 -31.9694 -31.7431  16.3305  18.1721  21.2607  21.4597
    22.6593  23.0050  31.1694  41.5857

          k =-0.0961-0.0961 0.1922 (   355 PWs)   bands (ev):

   -66.0791 -32.0165 -31.8140 -31.7661  14.7620  19.1096  19.1576  20.7856
    20.9089  21.3308  42.3461  43.7823

          k =-0.0961-0.1922 0.2882 (   360 PWs)   bands (ev):

   -66.0246 -32.2408 -31.9126 -31.7759  16.4387  18.5813  19.1627  20.9375
    21.4981  22.5087  37.1259  40.9789

          k =-0.0961 0.4804-0.3843 (   358 PWs)   bands (ev):

   -65.9858 -32.3869 -31.9915 -31.7791  16.7250  18.2797  20.2148  21.2035
    21.8898  24.5467  32.1897  39.5531

          k =-0.1922 0.5765-0.3843 (   353 PWs)   bands (ev):

   -65.9859 -32.3095 -32.0312 -31.8125  17.4562  18.2547  19.0902  21.1007
    21.7091  25.2092  34.6853  35.9574

          k =-0.1922 0.4804-0.2882 (   355 PWs)   bands (ev):

   -65.9698 -32.3094 -32.1213 -31.8219  17.5371  18.3194  19.1111  21.3253
    21.7724  27.9630  31.2151  34.8106

          k = 0.0000 0.0000 0.1922 (   357 PWs)   bands (ev):

   -66.0960 -31.8742 -31.8093 -31.8093  14.1472  19.5994  19.5994  19.9964
    20.4146  21.4643  44.3171  46.9901

          k = 0.0000-0.0961 0.2882 (   361 PWs)   bands (ev):

   -66.0440 -32.0911 -31.8913 -31.8247  15.7906  19.2315  19.2622  20.3398
    21.0335  21.8033  40.2199  43.9530

          k = 0.0000-0.1922 0.3843 (   362 PWs)   bands (ev):

   -65.9916 -32.3187 -31.9753 -31.8203  16.7649  18.8431  19.2061  20.8622
    22.3356  23.0896  34.5650  42.1038

          k = 0.0000 0.4804-0.2882 (   364 PWs)   bands (ev):

   -65.9698 -32.4129 -32.0103 -31.8172  16.7239  18.6689  19.5796  20.8891
    22.9578  25.0102  31.2275  41.6782

          k =-0.0961-0.0961 0.3843 (   362 PWs)   bands (ev):

   -65.9940 -32.2335 -31.9956 -31.8658  17.0688  18.4216  19.4515  20.5056
    21.7703  23.2403  37.6473  38.6394

          k =-0.0961 0.5765-0.2882 (   360 PWs)   bands (ev):

   -65.9586 -32.3393 -32.0884 -31.8682  17.3448  18.4016  19.0801  20.9693
    22.3575  26.3080  32.6663  36.7724

          k =-0.1922 0.1922 0.1922 (   357 PWs)   bands (ev):

   -66.0382 -32.2029 -31.8250 -31.8250  16.3808  18.5704  18.5704  21.2040
    21.2040  22.5604  39.9072  39.9072

          k =-0.1922 0.5765-0.1922 (   372 PWs)   bands (ev):

   -65.9449 -32.2518 -32.2518 -31.8787  17.9691  17.9691  18.6108  21.7918
    21.7918  30.4039  30.4039  33.3875

          k = 0.4804-0.4804 0.1922 (   354 PWs)   bands (ev):

   -65.9972 -32.3091 -31.9556 -31.8368  17.4125  18.2071  19.0195  21.2977
    21.4207  24.8784  34.7883  38.1949

          k = 0.3843-0.3843 0.1922 (   354 PWs)   bands (ev):

   -65.9802 -32.3361 -32.0280 -31.8409  17.2819  18.0881  19.9013  21.3871
    21.4891  26.9924  31.3130  37.5760

          k = 0.3843-0.4804 0.2882 (   352 PWs)   bands (ev):

   -65.9779 -32.2534 -32.0695 -31.9030  17.8588  18.3128  18.8924  21.4434
    21.5069  28.2122  32.7240  34.3084

          k = 0.0000 0.0000 0.3843 (   354 PWs)   bands (ev):

   -65.9974 -32.1069 -31.9772 -31.9772  16.8718  18.6554  20.1197  20.1197
    21.0819  22.8302  41.4378  41.4378

          k = 0.0000-0.0961 0.4804 (   359 PWs)   bands (ev):

   -65.9507 -32.2601 -32.0660 -31.9976  17.3150  17.8460  20.1427  20.6867
    22.1771  25.1887  35.6688  38.8413

          k = 0.0000 0.5765-0.1922 (   362 PWs)   bands (ev):

   -65.9313 -32.3414 -32.1032 -31.9890  17.1206  17.8020  20.0458  20.8400
    22.8303  28.1714  31.5431  37.7753

          k =-0.0961 0.6725-0.1922 (   360 PWs)   bands (ev):

   -65.9199 -32.2824 -32.1848 -32.0204  17.2280  17.2821  20.2107  21.6466
    22.4396  28.7530  33.5447  34.4889

          k = 0.3843-0.3843 0.3843 (   360 PWs)   bands (ev):

   -65.9747 -32.0885 -32.0885 -32.0885  18.3869  18.3869  18.3869  21.4925
    21.4925  32.0355  32.0355  32.0355

          k = 0.0000 0.0000 0.5765 (   362 PWs)   bands (ev):

   -65.9096 -32.2186 -32.1592 -32.1592  16.9387  16.9700  21.5530  21.5530
    22.1769  27.9219  35.8736  35.8736

          k = 0.0000 0.6725-0.0961 (   370 PWs)   bands (ev):

   -65.8925 -32.2689 -32.1992 -32.1652  16.6275  16.6831  21.7448  21.9777
    22.7018  31.3639  32.4315  34.6256

          k = 0.0000 0.0000-0.7686 (   370 PWs)   bands (ev):

   -65.8764 -32.2388 -32.2388 -32.2388  16.3035  16.3035  22.6479  22.6479
    22.6479  33.2614  33.2614  33.2614

     the Fermi energy is    22.3723 ev

!    total energy              =    -247.77525153 Ry
     estimated scf accuracy    <          4.1E-09 Ry
     smearing contrib. (-TS)   =      -0.00023414 Ry
     internal energy E=F+TS    =    -247.77501739 Ry

     The total energy is F=E-TS. E is the sum of the following terms:
     one-electron contribution =     -95.94297516 Ry
     hartree contribution      =      59.65307761 Ry
     xc contribution           =     -27.87879137 Ry
     ewald contribution        =    -183.60632847 Ry

     total magnetization       =    -1.99 Bohr mag/cell
     absolute magnetization    =     2.08 Bohr mag/cell

     convergence has been achieved in  14 iterations

     negative rho (up, down):  7.064E-05 0.000E+00

     Forces acting on atoms (cartesian axes, Ry/au):

     atom    1 type  1   force =     0.00000000    0.00000000    0.00000000

     Total force =     0.000000     Total SCF correction =     0.000000


     Computing stress (Cartesian axis) and pressure


     negative rho (up, down):  7.064E-05 0.000E+00
          total   stress  (Ry/bohr**3)                   (kbar)     P=     -106.49
  -0.00072391   0.00000000  -0.00000000         -106.49        0.00       -0.00
   0.00000000  -0.00072391   0.00000000            0.00     -106.49        0.00
  -0.00000000   0.00000000  -0.00072391           -0.00        0.00     -106.49

     Energy error            =      3.4E-01 Ry
     Gradient error          =      0.0E+00 Ry/Bohr
     Cell gradient error     =      1.1E+02 kbar

     number of scf cycles    =   3
     number of bfgs steps    =   2

     enthalpy           old  =    -247.4371676137 Ry
     enthalpy           new  =    -247.7752515297 Ry

     CASE: enthalpy          _new < enthalpy          _old

     new trust radius        =       0.0044792074 bohr
ibrav =      3
 celldm(1) =      5.06007690
Input lattice vectors:
     0.64872781     0.64872781     0.64872781
    -0.64872781     0.64872781     0.64872781
    -0.64872781    -0.64872781     0.64872781
New lattice vectors in INITIAL alat:
     0.64872781     0.64872781     0.64872781
    -0.64872781     0.64872781     0.64872781
    -0.64872781    -0.64872781     0.64872781
New lattice vectors in NEW alat (for information only):
     0.50000000     0.50000000     0.50000000
    -0.50000000     0.50000000     0.50000000
    -0.50000000    -0.50000000     0.50000000
Discrepancy in bohr =     0.000000    0.000000    0.000000

Atomic positions rescaled with new alat:
Fe            0.0000000000        0.0000000000        0.0000000000
     new conv_thr            =       0.0000000100 Ry

     new unit-cell volume =     64.78006 a.u.^3 (     9.59941 Ang^3 )
     density =      9.66060 g/cm^3

CELL_PARAMETERS (alat=  3.90000000)
   0.648727807   0.648727807   0.648727807
  -0.648727807   0.648727807   0.648727807
  -0.648727807  -0.648727807   0.648727807

ATOMIC_POSITIONS (alat)
Fe            0.0000000000        0.0000000000        0.0000000000



     Writing config-only to output data dir ./temp/fe.save/
     NEW-OLD atomic charge density approx. for the potential

     Check: negative core charge=   -0.000002

     negative rho (up, down):  7.214E-05 0.000E+00
     extrapolated charge   15.86625, renormalised to   16.00000
     Generating pointlists ...

     total cpu time spent up to now is       40.3 secs

     Self-consistent Calculation

     iteration #  1     ecut=    80.00 Ry     beta= 0.70
     Davidson diagonalization with overlap
     ethr =  1.00E-06,  avg # of iterations =  4.1

     negative rho (up, down):  3.191E-05 0.000E+00

     total cpu time spent up to now is       41.0 secs

     total energy              =    -247.73840434 Ry
     estimated scf accuracy    <       0.03271903 Ry

     total magnetization       =    -2.00 Bohr mag/cell
     absolute magnetization    =     2.10 Bohr mag/cell

     iteration #  2     ecut=    80.00 Ry     beta= 0.70
     Davidson diagonalization with overlap
     ethr =  2.04E-04,  avg # of iterations =  3.0

     negative rho (up, down):  5.685E-05 0.000E+00

     total cpu time spent up to now is       41.6 secs

     total energy              =    -247.76289802 Ry
     estimated scf accuracy    <       0.20424298 Ry

     total magnetization       =    -1.83 Bohr mag/cell
     absolute magnetization    =     1.91 Bohr mag/cell

     iteration #  3     ecut=    80.00 Ry     beta= 0.70
     Davidson diagonalization with overlap
     ethr =  2.04E-04,  avg # of iterations =  2.2

     negative rho (up, down):  6.525E-05 0.000E+00

     total cpu time spent up to now is       42.1 secs

     total energy              =    -247.77399570 Ry
     estimated scf accuracy    <       0.02072324 Ry

     total magnetization       =    -1.94 Bohr mag/cell
     absolute magnetization    =     2.02 Bohr mag/cell

     iteration #  4     ecut=    80.00 Ry     beta= 0.70
     Davidson diagonalization with overlap
     ethr =  1.30E-04,  avg # of iterations =  1.4

     negative rho (up, down):  6.516E-05 0.000E+00

     total cpu time spent up to now is       42.6 secs

     total energy              =    -247.77580545 Ry
     estimated scf accuracy    <       0.00201956 Ry

     total magnetization       =    -1.97 Bohr mag/cell
     absolute magnetization    =     2.05 Bohr mag/cell

     iteration #  5     ecut=    80.00 Ry     beta= 0.70
     Davidson diagonalization with overlap
     ethr =  1.26E-05,  avg # of iterations =  1.4

     negative rho (up, down):  6.578E-05 0.000E+00

     total cpu time spent up to now is       43.1 secs

     total energy              =    -247.77568835 Ry
     estimated scf accuracy    <       0.00165995 Ry

     total magnetization       =    -1.97 Bohr mag/cell
     absolute magnetization    =     2.06 Bohr mag/cell

     iteration #  6     ecut=    80.00 Ry     beta= 0.70
     Davidson diagonalization with overlap
     ethr =  1.04E-05,  avg # of iterations =  1.0

     negative rho (up, down):  6.676E-05 0.000E+00

     total cpu time spent up to now is       43.5 secs

     total energy              =    -247.77558037 Ry
     estimated scf accuracy    <       0.00087820 Ry

     total magnetization       =    -1.97 Bohr mag/cell
     absolute magnetization    =     2.06 Bohr mag/cell

     iteration #  7     ecut=    80.00 Ry     beta= 0.70
     Davidson diagonalization with overlap
     ethr =  5.49E-06,  avg # of iterations =  1.0

     negative rho (up, down):  6.826E-05 0.000E+00

     total cpu time spent up to now is       44.0 secs

     total energy              =    -247.77547749 Ry
     estimated scf accuracy    <       0.00038067 Ry

     total magnetization       =    -1.97 Bohr mag/cell
     absolute magnetization    =     2.06 Bohr mag/cell

     iteration #  8     ecut=    80.00 Ry     beta= 0.70
     Davidson diagonalization with overlap
     ethr =  2.38E-06,  avg # of iterations =  1.5

     negative rho (up, down):  6.840E-05 0.000E+00

     total cpu time spent up to now is       44.4 secs

     total energy              =    -247.77550957 Ry
     estimated scf accuracy    <       0.00002908 Ry

     total magnetization       =    -1.98 Bohr mag/cell
     absolute magnetization    =     2.07 Bohr mag/cell

     iteration #  9     ecut=    80.00 Ry     beta= 0.70
     Davidson diagonalization with overlap
     ethr =  1.82E-07,  avg # of iterations =  1.6

     negative rho (up, down):  6.866E-05 0.000E+00

     total cpu time spent up to now is       44.9 secs

     total energy              =    -247.77550652 Ry
     estimated scf accuracy    <       0.00001281 Ry

     total magnetization       =    -1.98 Bohr mag/cell
     absolute magnetization    =     2.07 Bohr mag/cell

     iteration # 10     ecut=    80.00 Ry     beta= 0.70
     Davidson diagonalization with overlap
     ethr =  8.00E-08,  avg # of iterations =  1.9

     negative rho (up, down):  6.864E-05 0.000E+00

     total cpu time spent up to now is       45.4 secs

     total energy              =    -247.77550842 Ry
     estimated scf accuracy    <       0.00000028 Ry

     total magnetization       =    -1.98 Bohr mag/cell
     absolute magnetization    =     2.07 Bohr mag/cell

     iteration # 11     ecut=    80.00 Ry     beta= 0.70
     Davidson diagonalization with overlap
     ethr =  1.73E-09,  avg # of iterations =  2.1

     negative rho (up, down):  6.857E-05 0.000E+00

     total cpu time spent up to now is       45.9 secs

     total energy              =    -247.77550847 Ry
     estimated scf accuracy    <       0.00000009 Ry

     total magnetization       =    -1.98 Bohr mag/cell
     absolute magnetization    =     2.07 Bohr mag/cell

     iteration # 12     ecut=    80.00 Ry     beta= 0.70
     Davidson diagonalization with overlap
     ethr =  5.65E-10,  avg # of iterations =  1.3

     negative rho (up, down):  6.853E-05 0.000E+00

     total cpu time spent up to now is       46.4 secs

     total energy              =    -247.77550847 Ry
     estimated scf accuracy    <       0.00000013 Ry

     total magnetization       =    -1.98 Bohr mag/cell
     absolute magnetization    =     2.07 Bohr mag/cell

     iteration # 13     ecut=    80.00 Ry     beta= 0.70
     Davidson diagonalization with overlap
     ethr =  5.65E-10,  avg # of iterations =  1.0

     negative rho (up, down):  6.844E-05 0.000E+00

     total cpu time spent up to now is       46.8 secs

     total energy              =    -247.77550843 Ry
     estimated scf accuracy    <       0.00000009 Ry

     total magnetization       =    -1.98 Bohr mag/cell
     absolute magnetization    =     2.07 Bohr mag/cell

     iteration # 14     ecut=    80.00 Ry     beta= 0.70
     Davidson diagonalization with overlap
     ethr =  5.65E-10,  avg # of iterations =  1.8

     negative rho (up, down):  6.838E-05 0.000E+00

     Magnetic moment per site  (integrated on atomic sphere of radius R)
     atom   1 (R=0.357)  charge= 12.6662  magn= -1.8480

     total cpu time spent up to now is       47.3 secs

     End of self-consistent calculation

 ------ SPIN UP ------------


          k = 0.0000 0.0000 0.0000 (   369 PWs)   bands (ev):

   -63.3715 -29.0150 -29.0150 -29.0150  13.0917  21.5813  21.5813  21.5813
    24.0556  24.0556  48.2781  55.4402

          k = 0.0000-0.0963 0.0963 (   358 PWs)   bands (ev):

   -63.3464 -29.1309 -29.0513 -29.0124  13.8311  21.3265  21.5169  22.0652
    23.8066  24.1054  45.8280  47.6215

          k = 0.0000-0.1927 0.1927 (   360 PWs)   bands (ev):

   -63.2855 -29.4190 -29.1416 -29.0139  15.7288  20.7199  21.1946  23.3047
    23.6557  24.1948  40.8057  45.1911

          k = 0.0000-0.2890 0.2890 (   360 PWs)   bands (ev):

   -63.2241 -29.6970 -29.2301 -29.0162  17.4004  20.1670  21.7549  23.8625
    24.3442  24.7459  35.5802  42.8444

          k = 0.0000 0.3854-0.3854 (   360 PWs)   bands (ev):

   -63.1986 -29.8097 -29.2675 -29.0156  17.6927  19.9501  23.0615  23.9530
    24.4466  25.4314  32.8786  41.9414

          k =-0.0963-0.0963 0.1927 (   355 PWs)   bands (ev):

   -63.3034 -29.3259 -29.0943 -29.0407  15.1758  21.0154  21.0983  23.0282
    23.5182  24.2503  43.1536  44.5177

          k =-0.0963-0.1927 0.2890 (   360 PWs)   bands (ev):

   -63.2422 -29.5790 -29.2050 -29.0524  17.1834  20.4123  20.8120  23.5740
    24.3401  24.7321  38.2954  41.7890

          k =-0.0963 0.4817-0.3854 (   358 PWs)   bands (ev):

   -63.1987 -29.7452 -29.2933 -29.0561  18.0680  20.0456  21.6366  23.8538
    24.5822  26.4065  33.7190  40.3369

          k =-0.1927 0.5781-0.3854 (   353 PWs)   bands (ev):

[...]
        k(   16) = (  -0.0964702   0.5788212  -0.2894106), wk =   0.0937500
        k(   17) = (  -0.1929404   0.1929404   0.1929404), wk =   0.0156250
        k(   18) = (  -0.1929404   0.5788212  -0.1929404), wk =   0.0156250
        k(   19) = (   0.4823510  -0.4823510   0.1929404), wk =   0.0468750
        k(   20) = (   0.3858808  -0.3858808   0.1929404), wk =   0.0234375
        k(   21) = (   0.3858808  -0.4823510   0.2894106), wk =   0.0468750
        k(   22) = (   0.0000000   0.0000000   0.3858808), wk =   0.0117188
        k(   23) = (   0.0000000  -0.0964702   0.4823510), wk =   0.0468750
        k(   24) = (   0.0000000   0.5788212  -0.1929404), wk =   0.0234375
        k(   25) = (  -0.0964702   0.6752915  -0.1929404), wk =   0.0468750
        k(   26) = (   0.3858808  -0.3858808   0.3858808), wk =   0.0039062
        k(   27) = (   0.0000000   0.0000000   0.5788212), wk =   0.0117188
        k(   28) = (   0.0000000   0.6752915  -0.0964702), wk =   0.0234375
        k(   29) = (   0.0000000   0.0000000  -0.7717617), wk =   0.0019531

     Dense  grid:    38823 G-vectors     FFT dimensions: (  45,  45,  45)

     Smooth grid:     6339 G-vectors     FFT dimensions: (  25,  25,  25)

     Estimated max dynamical RAM per process >     171.48 MB
     Generating pointlists ...

     Initial potential from superposition of free atoms

     starting charge      15.9996, renormalised to      16.0000
     Starting wfcs are   10 randomized atomic wfcs +    2 random wfcs

     total cpu time spent up to now is       76.0 secs

     Self-consistent Calculation

     iteration #  1     ecut=    80.00 Ry     beta= 0.70
     Davidson diagonalization with overlap
     ethr =  1.00E-06,  avg # of iterations =  9.7

     total cpu time spent up to now is       78.0 secs

     total energy              =    -247.78666428 Ry
     estimated scf accuracy    <       0.04031338 Ry

     total magnetization       =    -1.97 Bohr mag/cell
     absolute magnetization    =     1.98 Bohr mag/cell

     iteration #  2     ecut=    80.00 Ry     beta= 0.70
     Davidson diagonalization with overlap
     ethr =  2.52E-04,  avg # of iterations =  2.5

     total cpu time spent up to now is       79.2 secs

     total energy              =    -247.79241722 Ry
     estimated scf accuracy    <       0.06933891 Ry

     total magnetization       =    -2.01 Bohr mag/cell
     absolute magnetization    =     2.06 Bohr mag/cell

     iteration #  3     ecut=    80.00 Ry     beta= 0.70
     Davidson diagonalization with overlap
     ethr =  2.52E-04,  avg # of iterations =  2.0

     negative rho (up, down):  3.804E-05 0.000E+00

     total cpu time spent up to now is       80.2 secs

     total energy              =    -247.80662398 Ry
     estimated scf accuracy    <       0.00074646 Ry

     total magnetization       =    -1.97 Bohr mag/cell
     absolute magnetization    =     2.02 Bohr mag/cell

     iteration #  4     ecut=    80.00 Ry     beta= 0.70
     Davidson diagonalization with overlap
     ethr =  4.67E-06,  avg # of iterations =  2.3

     negative rho (up, down):  3.926E-05 0.000E+00

     total cpu time spent up to now is       81.3 secs

     total energy              =    -247.80696863 Ry
     estimated scf accuracy    <       0.00010491 Ry

     total magnetization       =    -1.96 Bohr mag/cell
     absolute magnetization    =     2.04 Bohr mag/cell

     iteration #  5     ecut=    80.00 Ry     beta= 0.70
     Davidson diagonalization with overlap
     ethr =  6.56E-07,  avg # of iterations =  2.1

     negative rho (up, down):  4.017E-05 0.000E+00

     total cpu time spent up to now is       82.4 secs

     total energy              =    -247.80702147 Ry
     estimated scf accuracy    <       0.00005102 Ry

     total magnetization       =    -1.97 Bohr mag/cell
     absolute magnetization    =     2.06 Bohr mag/cell

     iteration #  6     ecut=    80.00 Ry     beta= 0.70
     Davidson diagonalization with overlap
     ethr =  3.19E-07,  avg # of iterations =  1.2

     negative rho (up, down):  4.088E-05 0.000E+00

     total cpu time spent up to now is       83.3 secs

     total energy              =    -247.80701798 Ry
     estimated scf accuracy    <       0.00001658 Ry

     total magnetization       =    -1.97 Bohr mag/cell
     absolute magnetization    =     2.06 Bohr mag/cell

     iteration #  7     ecut=    80.00 Ry     beta= 0.70
     Davidson diagonalization with overlap
     ethr =  1.04E-07,  avg # of iterations =  2.1

     negative rho (up, down):  4.115E-05 0.000E+00

     total cpu time spent up to now is       84.4 secs

     total energy              =    -247.80702273 Ry
     estimated scf accuracy    <       0.00000148 Ry

     total magnetization       =    -1.97 Bohr mag/cell
     absolute magnetization    =     2.06 Bohr mag/cell

     iteration #  8     ecut=    80.00 Ry     beta= 0.70
     Davidson diagonalization with overlap
     ethr =  9.23E-09,  avg # of iterations =  1.3

     negative rho (up, down):  4.117E-05 0.000E+00

     total cpu time spent up to now is       85.4 secs

     total energy              =    -247.80702289 Ry
     estimated scf accuracy    <       0.00000009 Ry

     total magnetization       =    -1.98 Bohr mag/cell
     absolute magnetization    =     2.06 Bohr mag/cell

     iteration #  9     ecut=    80.00 Ry     beta= 0.70
     Davidson diagonalization with overlap
     ethr =  5.90E-10,  avg # of iterations =  1.9

     negative rho (up, down):  4.117E-05 0.000E+00

     Magnetic moment per site  (integrated on atomic sphere of radius R)
     atom   1 (R=0.357)  charge= 12.6680  magn= -1.8440

     total cpu time spent up to now is       86.4 secs

     End of self-consistent calculation

 ------ SPIN UP ------------


          k = 0.0000 0.0000 0.0000 (   767 PWs)   bands (ev):

   -63.2403 -28.8855 -28.8855 -28.8855  13.1739  21.6677  21.6677  21.6677
    24.1749  24.1749  48.4308  48.4308

          k = 0.0000-0.0965 0.0965 (   762 PWs)   bands (ev):

   -63.2147 -29.0074 -28.9240 -28.8860  13.9129  21.4023  21.5945  22.1419
    23.9162  24.1971  45.9916  47.7784

          k = 0.0000-0.1929 0.1929 (   784 PWs)   bands (ev):

   -63.1528 -29.2988 -29.0166 -28.8878  15.8151  20.7994  21.2836  23.3903
    23.7478  24.2881  40.9721  45.3485

          k = 0.0000-0.2894 0.2894 (   782 PWs)   bands (ev):

   -63.0903 -29.5826 -29.1080 -28.8891  17.4729  20.2419  21.8557  23.9525
    24.4415  24.8459  35.7231  42.9957

          k = 0.0000 0.3859-0.3859 (   798 PWs)   bands (ev):

   -63.0644 -29.6983 -29.1461 -28.8900  17.7565  20.0217  23.1877  24.0445
    24.5254  25.5367  33.0035  42.0895

          k =-0.0965-0.0965 0.1929 (   779 PWs)   bands (ev):

   -63.1710 -29.2069 -28.9694 -28.9150  15.2613  21.0890  21.1676  23.1077
    23.6158  24.3430  43.3214  44.6826

          k =-0.0965-0.1929 0.2894 (   784 PWs)   bands (ev):

   -63.1087 -29.4619 -29.0822 -28.9275  17.2678  20.4859  20.8963  23.6624
    24.4338  24.8308  38.4560  41.9499

          k =-0.0965 0.4824-0.3859 (   784 PWs)   bands (ev):

   -63.0644 -29.6335 -29.1718 -28.9312  18.1359  20.1189  21.7355  23.9441
    24.6694  26.5181  33.8482  40.4932

          k =-0.1929 0.5788-0.3859 (   774 PWs)   bands (ev):

   -63.0644 -29.5475 -29.2223 -28.9691  18.7787  20.0569  20.6994  23.8148
    24.5638  27.2177  36.1277  37.1502

          k =-0.1929 0.4824-0.2894 (   776 PWs)   bands (ev):

   -63.0460 -29.5449 -29.3255 -28.9793  19.1268  20.0786  20.7474  24.0674
    24.5208  29.6273  32.8587  36.0497

          k = 0.0000 0.0000 0.1929 (   771 PWs)   bands (ev):

   -63.1903 -29.0422 -28.9635 -28.9635  14.6162  21.6495  21.6495  22.1414
    23.2079  24.5177  45.0403  47.8020

          k = 0.0000-0.0965 0.2894 (   782 PWs)   bands (ev):

   -63.1309 -29.2906 -29.0586 -28.9807  16.4117  21.2548  21.3269  22.8287
    23.2724  24.7945  41.4168  44.7688

          k = 0.0000-0.1929 0.3859 (   778 PWs)   bands (ev):

   -63.0711 -29.5542 -29.1524 -28.9760  17.9978  20.7646  21.0359  23.3684
    24.7597  25.4688  36.0597  42.8958

          k = 0.0000 0.4824-0.2894 (   778 PWs)   bands (ev):

   -63.0462 -29.6622 -29.1911 -28.9735  18.2592  20.5675  21.4165  23.4824
    25.4776  26.7251  33.0014  42.2151

          k =-0.0965-0.0965 0.3859 (   774 PWs)   bands (ev):

   -63.0739 -29.4555 -29.1774 -29.0288  18.0785  20.5025  21.3750  22.8641
    24.2684  25.6502  39.0382  39.7926

          k =-0.0965 0.5788-0.2894 (   780 PWs)   bands (ev):

   -63.0335 -29.5764 -29.2851 -29.0325  18.9530  20.2436  20.9868  23.4017
    24.8560  28.1337  34.2287  37.9887

          k =-0.1929 0.1929 0.1929 (   784 PWs)   bands (ev):

   -63.1242 -29.4169 -28.9837 -28.9837  16.9923  20.4623  20.4623  24.1458
    24.1458  24.7990  40.9967  40.9967

          k =-0.1929 0.5788-0.1929 (   787 PWs)   bands (ev):

   -63.0179 -29.4703 -29.4703 -29.0414  19.8370  19.8370  20.3877  24.2600
    24.2600  32.0164  32.0164  34.6988

          k = 0.4824-0.4824 0.1929 (   785 PWs)   bands (ev):

   -63.0772 -29.5450 -29.1324 -28.9981  18.6347  19.9897  20.4755  24.2074
    24.4574  26.9170  36.1650  39.2801

          k = 0.3859-0.3859 0.1929 (   784 PWs)   bands (ev):

   -63.0577 -29.5757 -29.2159 -29.0040  18.7748  19.8303  21.2847  24.2882
    24.5576  28.6431  32.9868  38.6432

          k = 0.3859-0.4824 0.2894 (   773 PWs)   bands (ev):

   -63.0549 -29.4798 -29.2669 -29.0743  19.4437  19.9432  20.3476  24.4123
    24.5451  29.8998  34.1588  35.5731

          k = 0.0000 0.0000 0.3859 (   771 PWs)   bands (ev):

   -63.0779 -29.3132 -29.1589 -29.1589  17.7753  20.9967  22.1558  22.1558
    23.3321  25.4556  42.4451  42.6589

          k = 0.0000-0.0965 0.4824 (   780 PWs)   bands (ev):

   -63.0247 -29.4868 -29.2587 -29.1822  18.8167  19.9076  22.1741  22.8662
    24.5701  27.1049  37.0389  40.0077

          k = 0.0000 0.5788-0.1929 (   782 PWs)   bands (ev):

   -63.0026 -29.5752 -29.2996 -29.1740  18.9632  19.6791  22.0689  23.0444
    25.3359  29.6818  33.1055  38.8753

          k =-0.0965 0.6753-0.1929 (   775 PWs)   bands (ev):

   -62.9897 -29.5085 -29.3947 -29.2091  19.1001  19.2029  22.2137  23.9126
    24.8698  30.2695  34.9389  35.6577

          k = 0.3859-0.3859 0.3859 (   784 PWs)   bands (ev):

   -63.0511 -29.2857 -29.2857 -29.2857  19.9562  19.9562  19.9562  24.5897
    24.5897  33.4612  33.4612  33.4612

          k = 0.0000 0.0000 0.5788 (   783 PWs)   bands (ev):

   -62.9781 -29.4397 -29.3636 -29.3636  18.7222  18.9895  23.7539  23.7539
    24.5941  29.3336  36.9194  36.9194

          k = 0.0000 0.6753-0.0965 (   780 PWs)   bands (ev):

   -62.9586 -29.4870 -29.4064 -29.3705  18.5640  18.5875  24.0318  24.2751
    25.1970  32.5159  33.5534  35.5593

          k = 0.0000 0.0000-0.7718 (   784 PWs)   bands (ev):

   -62.9404 -29.4506 -29.4506 -29.4506  18.2166  18.2166  25.1395  25.1395
    25.1395  34.0290  34.0290  34.0290

 ------ SPIN DOWN ----------


          k = 0.0000 0.0000 0.0000 (   767 PWs)   bands (ev):

   -65.7831 -31.3817 -31.3817 -31.3817  12.9775  19.8509  19.8509  19.8509
    21.4871  21.4871  48.5995  48.5995

          k = 0.0000-0.0965 0.0965 (   762 PWs)   bands (ev):

   -65.7595 -31.4920 -31.4171 -31.3821  13.7061  19.6249  19.8047  20.2892
    21.2958  21.5082  45.7565  47.7973

          k = 0.0000-0.1929 0.1929 (   784 PWs)   bands (ev):

   -65.7023 -31.7564 -31.5021 -31.3835  15.4949  19.1062  19.6614  21.2624
    21.4337  21.5835  40.2587  45.2158

          k = 0.0000-0.2894 0.2894 (   782 PWs)   bands (ev):

   -65.6447 -32.0146 -31.5862 -31.3844  16.5518  18.6204  20.9598  21.6095
    21.7002  22.7459  34.6374  42.8874

          k = 0.0000 0.3859-0.3859 (   798 PWs)   bands (ev):

   -65.6207 -32.1201 -31.6213 -31.3852  16.5547  18.4269  21.5754  21.7615
    22.9980  23.3572  31.5913  42.0117

          k =-0.0965-0.0965 0.1929 (   779 PWs)   bands (ev):

   -65.7191 -31.6731 -31.4585 -31.4085  15.0121  19.3781  19.4208  21.1000
    21.2058  21.6464  42.8216  44.2637

          k =-0.0965-0.1929 0.2894 (   784 PWs)   bands (ev):

   -65.6616 -31.9050 -31.5618 -31.4198  16.6896  18.8427  19.4434  21.2435
    21.8170  22.8460  37.5938  41.4482

          k =-0.0965 0.4824-0.3859 (   784 PWs)   bands (ev):

   -65.6207 -32.0613 -31.6440 -31.4229  16.9571  18.5374  20.5072  21.5156
    22.2104  24.9109  32.6159  40.0103

          k =-0.1929 0.5788-0.3859 (   774 PWs)   bands (ev):

   -65.6208 -31.9834 -31.6887 -31.4580  17.7028  18.4982  19.3587  21.4143
    22.0145  25.5706  35.1440  36.3839

          k =-0.1929 0.4824-0.2894 (   776 PWs)   bands (ev):

   -65.6038 -31.9811 -31.7825 -31.4674  17.7849  18.5694  19.3790  21.6407
    22.0775  28.3676  31.6370  35.2388

          k = 0.0000 0.0000 0.1929 (   771 PWs)   bands (ev):

   -65.7369 -31.5226 -31.4533 -31.4533  14.3926  19.8743  19.8743  20.2850
    20.7191  21.7886  44.7696  47.4953

          k = 0.0000-0.0965 0.2894 (   782 PWs)   bands (ev):

   -65.6821 -31.7487 -31.5405 -31.4684  16.0477  19.5110  19.5368  20.6424
    21.3286  22.1374  40.7004  44.4147

          k = 0.0000-0.1929 0.3859 (   778 PWs)   bands (ev):

   -65.6269 -31.9891 -31.6267 -31.4639  17.0053  19.1091  19.4876  21.1789
    22.6699  23.4272  35.0135  42.5474

          k = 0.0000 0.4824-0.2894 (   778 PWs)   bands (ev):

   -65.6039 -32.0878 -31.6622 -31.4615  16.9581  18.9361  19.8584  21.2037
    23.3039  25.3809  31.6471  41.8757

          k =-0.0965-0.0965 0.3859 (   774 PWs)   bands (ev):

   -65.6294 -31.8994 -31.6488 -31.5127  17.3238  18.6855  19.7298  20.8068
    22.0919  23.5777  38.1292  39.1046

          k =-0.0965 0.5788-0.2894 (   780 PWs)   bands (ev):

   -65.5921 -32.0102 -31.7469 -31.5162  17.5838  18.6616  19.3454  21.2778
    22.6849  26.6930  33.1047  37.2298

          k =-0.1929 0.1929 0.1929 (   784 PWs)   bands (ev):

   -65.6760 -31.8643 -31.4711 -31.4711  16.6392  18.8346  18.8346  21.5142
    21.5142  22.8998  40.3828  40.3828

          k =-0.1929 0.5788-0.1929 (   787 PWs)   bands (ev):

   -65.5776 -31.9146 -31.9146 -31.5247  18.2314  18.2314  18.8800  22.1214
    22.1214  30.8414  30.8414  33.8119

          k = 0.4824-0.4824 0.1929 (   785 PWs)   bands (ev):

   -65.6327 -31.9809 -31.6068 -31.4838  17.6566  18.4603  19.2949  21.6154
    21.7261  25.2423  35.2324  38.6594

          k = 0.3859-0.3859 0.1929 (   784 PWs)   bands (ev):

   -65.6147 -32.0087 -31.6832 -31.4889  17.5208  18.3373  20.1925  21.7016
    21.7865  27.3867  31.7300  38.0347

          k = 0.3859-0.4824 0.2894 (   773 PWs)   bands (ev):

   -65.6122 -31.9217 -31.7284 -31.5532  18.1050  18.5650  19.1662  21.7457
    21.8160  28.6190  33.1686  34.7307

          k = 0.0000 0.0000 0.3859 (   771 PWs)   bands (ev):

   -65.6330 -31.7686 -31.6323 -31.6323  17.1256  18.9109  20.4028  20.4028
    21.3698  23.1620  41.6846  41.9586

          k = 0.0000-0.0965 0.4824 (   780 PWs)   bands (ev):

   -65.5838 -31.9287 -31.7236 -31.6527  17.5569  18.0984  20.4167  20.9815
    22.5006  25.5504  36.1328  39.3396

          k = 0.0000 0.5788-0.1929 (   782 PWs)   bands (ev):

   -65.5633 -32.0101 -31.7611 -31.6450  17.3595  18.0495  20.3212  21.1342
    23.1760  28.5802  31.9712  38.2624

          k =-0.0965 0.6753-0.1929 (   775 PWs)   bands (ev):

   -65.5514 -31.9498 -31.8472 -31.6779  17.4651  17.5179  20.4925  21.9499
    22.7711  29.1607  34.0030  34.9291

          k = 0.3859-0.3859 0.3859 (   784 PWs)   bands (ev):

   -65.6087 -31.7452 -31.7452 -31.7452  18.6538  18.6538  18.6538  21.8113
    21.8113  32.4782  32.4782  32.4782

          k = 0.0000 0.0000 0.5788 (   783 PWs)   bands (ev):

   -65.5405 -31.8867 -31.8194 -31.8194  17.1723  17.2049  21.8546  21.8546
    22.5094  28.3116  36.3412  36.3412

          k = 0.0000 0.6753-0.0965 (   780 PWs)   bands (ev):

   -65.5225 -31.9314 -31.8586 -31.8253  16.8608  16.9173  22.0706  22.3058
    23.0506  31.7976  32.8641  35.0791

          k = 0.0000 0.0000-0.7718 (   784 PWs)   bands (ev):

   -65.5056 -31.8989 -31.8989 -31.8989  16.5329  16.5329  22.9986  22.9986
    22.9986  33.6967  33.6967  33.6967

     the Fermi energy is    22.6978 ev

!    total energy              =    -247.80702291 Ry
     estimated scf accuracy    <          1.1E-09 Ry
     smearing contrib. (-TS)   =      -0.00033381 Ry
     internal energy E=F+TS    =    -247.80668910 Ry

     The total energy is F=E-TS. E is the sum of the following terms:
     one-electron contribution =     -94.84409772 Ry
     hartree contribution      =      59.29538631 Ry
     xc contribution           =     -27.89722318 Ry
     ewald contribution        =    -184.36075451 Ry

     total magnetization       =    -1.98 Bohr mag/cell
     absolute magnetization    =     2.06 Bohr mag/cell

     convergence has been achieved in   9 iterations

     negative rho (up, down):  4.117E-05 0.000E+00

     Forces acting on atoms (cartesian axes, Ry/au):

     atom    1 type  1   force =     0.00000000    0.00000000    0.00000000

     Total force =     0.000000     Total SCF correction =     0.000000


     Computing stress (Cartesian axis) and pressure


     negative rho (up, down):  4.117E-05 0.000E+00
          total   stress  (Ry/bohr**3)                   (kbar)     P=      497.90
   0.00338464  -0.00000000  -0.00000000          497.90       -0.00       -0.00
   0.00000000   0.00338464   0.00000000            0.00      497.90        0.00
  -0.00000000   0.00000000   0.00338464           -0.00        0.00      497.90


     Writing all to output data dir ./temp/fe.save/

     init_run     :      6.55s CPU      6.61s WALL (       2 calls)
     electrons    :     58.64s CPU     60.46s WALL (       8 calls)
     update_pot   :      7.00s CPU      7.06s WALL (       6 calls)
     forces       :      6.33s CPU      6.43s WALL (       8 calls)
     stress       :      8.86s CPU      9.00s WALL (       8 calls)

     Called by init_run:
     wfcinit      :      0.30s CPU      0.30s WALL (       2 calls)
     potinit      :      1.42s CPU      1.43s WALL (       2 calls)
     hinit0       :      4.68s CPU      4.70s WALL (       2 calls)

     Called by electrons:
     c_bands      :     34.53s CPU     35.44s WALL (     103 calls)
     sum_band     :     16.30s CPU     16.83s WALL (     103 calls)
     v_of_rho     :      3.97s CPU      4.06s WALL (     111 calls)
     newd         :      3.91s CPU      4.23s WALL (     111 calls)
     mix_rho      :      0.27s CPU      0.28s WALL (     103 calls)

     Called by c_bands:
     init_us_2    :      1.53s CPU      1.56s WALL (   12992 calls)
     init_us_2:cp :      1.52s CPU      1.55s WALL (   12992 calls)
     cegterg      :     28.41s CPU     29.27s WALL (    5974 calls)

     Called by *egterg:
     cdiaghg      :      1.81s CPU      1.82s WALL (   19641 calls)
     h_psi        :     22.81s CPU     23.23s WALL (   20105 calls)
     s_psi        :      0.37s CPU      0.41s WALL (   20105 calls)
     g_psi        :      0.41s CPU      0.41s WALL (   14015 calls)

     Called by h_psi:
     h_psi:calbec :      0.45s CPU      0.60s WALL (   20105 calls)
     vloc_psi     :     21.82s CPU     22.03s WALL (   20105 calls)
     add_vuspsi   :      0.40s CPU      0.43s WALL (   20105 calls)

     General routines
     calbec       :      0.65s CPU      0.91s WALL (   28399 calls)
     fft          :      1.18s CPU      1.19s WALL (    3085 calls)
     ffts         :      0.02s CPU      0.02s WALL (     428 calls)
     fftw         :     10.82s CPU     10.93s WALL (  454094 calls)
     interpolate  :      0.11s CPU      0.11s WALL (     222 calls)

     Parallel routines

     PWSCF        :   1m27.78s CPU   1m30.04s WALL


   This run was terminated on:   9:27:35  24Mar2022            

=------------------------------------------------------------------------------=
   JOB DONE.
=------------------------------------------------------------------------------=
