
     Program BANDS v.7.0 starts on 23Mar2022 at 21:35:52 

     This program is part of the open-source Quantum ESPRESSO suite
     for quantum simulation of materials; please cite
         "P. Giannozzi et al., J. Phys.:Condens. Matter 21 395502 (2009);
         "P. Giannozzi et al., J. Phys.:Condens. Matter 29 465901 (2017);
         "P. Giannozzi et al., J. Chem. Phys. 152 154105 (2020);
          URL http://www.quantum-espresso.org", 
     in publications or presentations arising from this work. More details at
     http://www.quantum-espresso.org/quote

     Parallel version (MPI), running on     1 processors

     MPI processes distributed on     1 nodes
     0 MiB available memory on the printing compute node when the environment starts


     Reading xml data from directory:

     ./temp/Germanium.save/

     IMPORTANT: XC functional enforced from input :
     Exchange-correlation= PBE
                           (   1   4   3   4   0   0   0)
     Any further DFT definition will be discarded
     Please, verify this is what you really want


     G-vector sticks info
     --------------------
     sticks:   dense  smooth     PW     G-vecs:    dense   smooth      PW
     Sum        1261    1261    361                29603    29603    4573

     Using Slab Decomposition


     Check: negative core charge=   -0.000001
     Reading collected, re-writing distributed wavefunctions
     high-symmetry point:  0.0000 0.0000 0.0000   x coordinate   0.0000
     high-symmetry point: -1.0000 0.0000 0.0000   x coordinate   1.0000
     high-symmetry point: -1.0000 0.2500 0.2500   x coordinate   1.3536
     high-symmetry point: -0.7500 0.7500 0.0000   x coordinate   1.3536
     high-symmetry point:  0.0000 0.0000 0.0000   x coordinate   2.4142
     high-symmetry point: -0.5000 0.5000 0.5000   x coordinate   3.2802
     high-symmetry point: -1.0000 0.5000 0.0000   x coordinate   3.9873
     high-symmetry point: -1.0000 0.0000 0.0000   x coordinate   4.4873

     Plottable bands (eV) written to file germanium.bands.out.gnu
     Bands written to file germanium.bands.out

 **************************************************************************

                    xk=(   0.00000,   0.00000,   0.00000  )

     point group O_h (m-3m) 
     there are 10 classes
     the character table:

       E     8C3   3C2   6C4   6C2'  i     8S6   3s_h  6S4   6s_d 
A_1g   1.00  1.00  1.00  1.00  1.00  1.00  1.00  1.00  1.00  1.00
A_2g   1.00  1.00  1.00 -1.00 -1.00  1.00  1.00  1.00 -1.00 -1.00
E_g    2.00 -1.00  2.00  0.00  0.00  2.00 -1.00  2.00  0.00  0.00
T_1g   3.00  0.00 -1.00  1.00 -1.00  3.00  0.00 -1.00  1.00 -1.00
T_2g   3.00  0.00 -1.00 -1.00  1.00  3.00  0.00 -1.00 -1.00  1.00
A_1u   1.00  1.00  1.00  1.00  1.00 -1.00 -1.00 -1.00 -1.00 -1.00
A_2u   1.00  1.00  1.00 -1.00 -1.00 -1.00 -1.00 -1.00  1.00  1.00
E_u    2.00 -1.00  2.00  0.00  0.00 -2.00  1.00 -2.00  0.00  0.00
T_1u   3.00  0.00 -1.00  1.00 -1.00 -3.00  0.00  1.00 -1.00  1.00
T_2u   3.00  0.00 -1.00 -1.00  1.00 -3.00  0.00  1.00  1.00 -1.00

     the symmetry operations in each class and the name of the first element:

     E        1
                                                                 
     8C3     17   19   20   18   24   21   22   23
                                                                 
     3C2      2    4    3
                                                                 
     6C4      7    8   15   16   12   11
                                                                 
     6C2'     5    6   14   13   10    9
                                                                 
     i       25
                                                                 
     8S6     41   43   44   42   48   45   46   47
                                                                 
     3s_h    26   28   27
                                                                 
     6S4     31   32   39   40   36   35
                                                                 
     6s_d    29   30   38   37   34   33
                                                                 

     Band symmetry, O_h (m-3m)  point group:

     e(  1 -  3) =    -16.32720  eV     3   --> T_2g G_25' G_5+
     e(  4 -  5) =    -16.29170  eV     2   --> E_u  G_12' G_3-
     e(  6 -  8) =    -16.08020  eV     3   --> T_1u G_15  G_4-
     e(  9 - 10) =    -16.06709  eV     2   --> E_g  G_12  G_3+
     e( 11 - 11) =     -4.30089  eV     1   --> A_1g G_1   G_1+
     e( 12 - 13) =      8.47445  eV     2   -->   ?

 **************************************************************************

 **************************************************************************

                    xk=(  -0.02326,   0.00000,   0.00000  )

     point group C_4v (4mm) 
     there are  5 classes
     the character table:

       E     2C4   C2    2s_v  2s_d 
A_1    1.00  1.00  1.00  1.00  1.00
A_2    1.00  1.00  1.00 -1.00 -1.00
B_1    1.00 -1.00  1.00  1.00 -1.00
B_2    1.00 -1.00  1.00 -1.00  1.00
E      2.00  0.00 -2.00  0.00  0.00

     the symmetry operations in each class and the name of the first element:

     E        1
                                                                 
     2C4      3    4
                                                                 
     C2       2
                                                                 
     2s_v     5    6
                                                                 
     2s_d     7    8
                                                                 

     Band symmetry, C_4v (4mm)  point group:

     e(  1 -  3) =    -16.32733  eV     3   --> B_2  G_4 D_2'  
     e(  1 -  3) =    -16.32733  eV     3   --> E    G_5 D_5   
     e(  4 -  4) =    -16.29162  eV     1   --> A_2  G_2 D_1'  
     e(  5 -  5) =    -16.29143  eV     1   --> B_2  G_4 D_2'  
     e(  6 -  6) =    -16.08092  eV     1   --> A_1  G_1 D_1   
     e(  7 -  8) =    -16.08012  eV     2   --> E    G_5 D_5   
     e(  9 -  9) =    -16.06716  eV     1   --> B_1  G_3 D_2   
     e( 10 - 10) =    -16.06655  eV     1   --> A_1  G_1 D_1   
     e( 11 - 11) =     -4.29868  eV     1   --> A_1  G_1 D_1   
     e( 12 - 12) =      8.26744  eV     1   --> B_2  G_4 D_2'  
     e( 13 - 14) =      8.46304  eV     2   --> E    G_5 D_5   

 **************************************************************************

 **************************************************************************

                    xk=(  -0.04651,   0.00000,   0.00000  )

     Band symmetry, C_4v (4mm)  point group:

     e(  1 -  1) =    -16.32772  eV     1   --> B_2  G_4 D_2'  
     e(  2 -  3) =    -16.32741  eV     2   --> E    G_5 D_5   
     e(  4 -  4) =    -16.29139  eV     1   --> A_2  G_2 D_1'  
     e(  5 -  5) =    -16.29061  eV     1   --> B_2  G_4 D_2'  
     e(  6 -  6) =    -16.08278  eV     1   --> A_1  G_1 D_1   
     e(  7 -  8) =    -16.07988  eV     2   --> E    G_5 D_5   
     e(  9 -  9) =    -16.06738  eV     1   --> B_1  G_3 D_2   
     e( 10 - 10) =    -16.06520  eV     1   --> A_1  G_1 D_1   
     e( 11 - 11) =     -4.29205  eV     1   --> A_1  G_1 D_1   
     e( 12 - 12) =      8.04340  eV     1   --> B_2  G_4 D_2'  
     e( 13 - 14) =      8.42959  eV     2   --> E    G_5 D_5   

 **************************************************************************

 **************************************************************************

                    xk=(  -0.06977,   0.00000,   0.00000  )

     Band symmetry, C_4v (4mm)  point group:

     e(  1 -  1) =    -16.32833  eV     1   --> B_2  G_4 D_2'  
     e(  2 -  3) =    -16.32768  eV     2   --> E    G_5 D_5   
     e(  4 -  4) =    -16.29100  eV     1   --> A_2  G_2 D_1'  
     e(  5 -  5) =    -16.28931  eV     1   --> B_2  G_4 D_2'  
     e(  6 -  6) =    -16.08537  eV     1   --> A_1  G_1 D_1   
     e(  7 -  8) =    -16.07948  eV     2   --> E    G_5 D_5   
     e(  9 -  9) =    -16.06774  eV     1   --> B_1  G_3 D_2   
     e( 10 - 10) =    -16.06346  eV     1   --> A_1  G_1 D_1   
     e( 11 - 11) =     -4.28100  eV     1   --> A_1  G_1 D_1   
     e( 12 - 12) =      7.81895  eV     1   --> B_2  G_4 D_2'  
     e( 13 - 14) =      8.37619  eV     2   --> E    G_5 D_5   

 **************************************************************************

 **************************************************************************

                    xk=(  -0.09302,   0.00000,   0.00000  )

     Band symmetry, C_4v (4mm)  point group:

     e(  1 -  1) =    -16.32909  eV     1   --> B_2  G_4 D_2'  
     e(  2 -  3) =    -16.32804  eV     2   --> E    G_5 D_5   
     e(  4 -  4) =    -16.29045  eV     1   --> A_2  G_2 D_1'  
     e(  5 -  5) =    -16.28756  eV     1   --> B_2  G_4 D_2'  
     e(  6 -  6) =    -16.08841  eV     1   --> A_1  G_1 D_1   
     e(  7 -  8) =    -16.07892  eV     2   --> E    G_5 D_5   
     e(  9 -  9) =    -16.06823  eV     1   --> B_1  G_3 D_2   
     e( 10 - 10) =    -16.06162  eV     1   --> A_1  G_1 D_1   
     e( 11 - 11) =     -4.26553  eV     1   --> A_1  G_1 D_1   
     e( 12 - 12) =      7.59448  eV     1   --> B_2  G_4 D_2'  
     e( 13 - 14) =      8.30577  eV     2   --> E    G_5 D_5   

 **************************************************************************

 **************************************************************************

                    xk=(  -0.11628,   0.00000,   0.00000  )

     Band symmetry, C_4v (4mm)  point group:

     e(  1 -  1) =    -16.32997  eV     1   --> B_2  G_4 D_2'  
     e(  2 -  3) =    -16.32851  eV     2   --> E    G_5 D_5   
     e(  4 -  4) =    -16.28974  eV     1   --> A_2  G_2 D_1'  
     e(  5 -  5) =    -16.28542  eV     1   --> B_2  G_4 D_2'  
     e(  6 -  6) =    -16.09176  eV     1   --> A_1  G_1 D_1   
     e(  7 -  8) =    -16.07821  eV     2   --> E    G_5 D_5   
     e(  9 -  9) =    -16.06887  eV     1   --> B_1  G_3 D_2   
     e( 10 - 10) =    -16.05981  eV     1   --> A_1  G_1 D_1   
     e( 11 - 11) =     -4.24565  eV     1   --> A_1  G_1 D_1   
     e( 12 - 12) =      7.37017  eV     1   --> B_2  G_4 D_2'  
     e( 13 - 14) =      8.22155  eV     2   --> E    G_5 D_5   

 **************************************************************************

 **************************************************************************

                    xk=(  -0.13953,   0.00000,   0.00000  )

     Band symmetry, C_4v (4mm)  point group:

     e(  1 -  1) =    -16.33090  eV     1   --> B_2  G_4 D_2'  
     e(  2 -  3) =    -16.32908  eV     2   --> E    G_5 D_5   
     e(  4 -  4) =    -16.28888  eV     1   --> A_2  G_2 D_1'  
     e(  5 -  5) =    -16.28295  eV     1   --> B_2  G_4 D_2'  
     e(  6 -  6) =    -16.09535  eV     1   --> A_1  G_1 D_1   
     e(  7 -  8) =    -16.07736  eV     2   --> E    G_5 D_5   
     e(  9 -  9) =    -16.06966  eV     1   --> B_1  G_3 D_2   
     e( 10 - 10) =    -16.05809  eV     1   --> A_1  G_1 D_1   
     e( 11 - 11) =     -4.22136  eV     1   --> A_1  G_1 D_1   
     e( 12 - 12) =      7.14617  eV     1   --> B_2  G_4 D_2'  
     e( 13 - 14) =      8.12660  eV     2   --> E    G_5 D_5   

 **************************************************************************

 **************************************************************************

                    xk=(  -0.16279,   0.00000,   0.00000  )

     Band symmetry, C_4v (4mm)  point group:

     e(  1 -  1) =    -16.33184  eV     1   --> B_2  G_4 D_2'  
     e(  2 -  3) =    -16.32973  eV     2   --> E    G_5 D_5   
     e(  4 -  4) =    -16.28787  eV     1   --> A_2  G_2 D_1'  
     e(  5 -  5) =    -16.28019  eV     1   --> B_2  G_4 D_2'  
     e(  6 -  6) =    -16.09914  eV     1   --> A_1  G_1 D_1   
     e(  7 -  8) =    -16.07636  eV     2   --> E    G_5 D_5   
     e(  9 -  9) =    -16.07058  eV     1   --> B_1  G_3 D_2   
     e( 10 - 10) =    -16.05651  eV     1   --> A_1  G_1 D_1   
     e( 11 - 11) =     -4.19267  eV     1   --> A_1  G_1 D_1   
     e( 12 - 12) =      6.92260  eV     1   --> B_2  G_4 D_2'  
     e( 13 - 14) =      8.02361  eV     2   --> E    G_5 D_5   

 **************************************************************************

 **************************************************************************

                    xk=(  -0.18605,   0.00000,   0.00000  )

     Band symmetry, C_4v (4mm)  point group:

     e(  1 -  1) =    -16.33275  eV     1   --> B_2  G_4 D_2'  
     e(  2 -  3) =    -16.33047  eV     2   --> E    G_5 D_5   
     e(  4 -  4) =    -16.28671  eV     1   --> A_2  G_2 D_1'  
     e(  5 -  5) =    -16.27719  eV     1   --> B_2  G_4 D_2'  
     e(  6 -  6) =    -16.10310  eV     1   --> A_1  G_1 D_1   
     e(  7 -  8) =    -16.07523  eV     2   --> E    G_5 D_5   
     e(  9 -  9) =    -16.07164  eV     1   --> B_1  G_3 D_2   
     e( 10 - 10) =    -16.05508  eV     1   --> A_1  G_1 D_1   
     e( 11 - 11) =     -4.15959  eV     1   --> A_1  G_1 D_1   
     e( 12 - 12) =      6.69953  eV     1   --> B_2  G_4 D_2'  
     e( 13 - 14) =      7.91486  eV     2   --> E    G_5 D_5   

 **************************************************************************

 **************************************************************************

                    xk=(  -0.20930,   0.00000,   0.00000  )

     Band symmetry, C_4v (4mm)  point group:

     e(  1 -  1) =    -16.33360  eV     1   --> B_2  G_4 D_2'  
     e(  2 -  3) =    -16.33129  eV     2   --> E    G_5 D_5   
     e(  4 -  4) =    -16.28540  eV     1   --> A_2  G_2 D_1'  
     e(  5 -  5) =    -16.27396  eV     1   --> B_2  G_4 D_2'  
     e(  6 -  6) =    -16.10721  eV     1   --> A_1  G_1 D_1   
     e(  7 -  8) =    -16.07397  eV     2   --> E    G_5 D_5   
     e(  9 -  9) =    -16.07283  eV     1   --> B_1  G_3 D_2   
     e( 10 - 10) =    -16.05383  eV     1   --> A_1  G_1 D_1   
     e( 11 - 11) =     -4.12212  eV     1   --> A_1  G_1 D_1   
     e( 12 - 12) =      6.47704  eV     1   --> B_2  G_4 D_2'  
     e( 13 - 14) =      7.80220  eV     2   --> E    G_5 D_5   

 **************************************************************************

 **************************************************************************

                    xk=(  -0.23256,   0.00000,   0.00000  )

     Band symmetry, C_4v (4mm)  point group:

     e(  1 -  1) =    -16.33438  eV     1   --> B_2  G_4 D_2'  
     e(  2 -  3) =    -16.33219  eV     2   --> E    G_5 D_5   
     e(  4 -  4) =    -16.28394  eV     1   --> A_2  G_2 D_1'  
     e(  5 -  5) =    -16.27055  eV     1   --> B_2  G_4 D_2'  
     e(  6 -  6) =    -16.11147  eV     1   --> A_1  G_1 D_1   
     e(  7 -  7) =    -16.07417  eV     1   --> B_1  G_3 D_2   
     e(  8 -  9) =    -16.07259  eV     2   --> E    G_5 D_5   
     e( 10 - 10) =    -16.05275  eV     1   --> A_1  G_1 D_1   
     e( 11 - 11) =     -4.08028  eV     1   --> A_1  G_1 D_1   
     e( 12 - 12) =      6.25519  eV     1   --> B_2  G_4 D_2'  
     e( 13 - 14) =      7.68713  eV     2   --> E    G_5 D_5   

 **************************************************************************

 **************************************************************************

                    xk=(  -0.25581,   0.00000,   0.00000  )

     Band symmetry, C_4v (4mm)  point group:

     e(  1 -  1) =    -16.33506  eV     1   --> B_2  G_4 D_2'  
     e(  2 -  3) =    -16.33315  eV     2   --> E    G_5 D_5   
     e(  4 -  4) =    -16.28234  eV     1   --> A_2  G_2 D_1'  
     e(  5 -  5) =    -16.26696  eV     1   --> B_2  G_4 D_2'  
     e(  6 -  6) =    -16.11585  eV     1   --> A_1  G_1 D_1   
     e(  7 -  7) =    -16.07564  eV     1   --> B_1  G_3 D_2   
     e(  8 -  9) =    -16.07111  eV     2   --> E    G_5 D_5   
     e( 10 - 10) =    -16.05186  eV     1   --> A_1  G_1 D_1   
     e( 11 - 11) =     -4.03408  eV     1   --> A_1  G_1 D_1   
     e( 12 - 12) =      6.03403  eV     1   --> B_2  G_4 D_2'  
     e( 13 - 14) =      7.57084  eV     2   --> E    G_5 D_5   

 **************************************************************************

 **************************************************************************

                    xk=(  -0.27907,   0.00000,   0.00000  )

     Band symmetry, C_4v (4mm)  point group:

     e(  1 -  1) =    -16.33562  eV     1   --> B_2  G_4 D_2'  
     e(  2 -  3) =    -16.33417  eV     2   --> E    G_5 D_5   
     e(  4 -  4) =    -16.28059  eV     1   --> A_2  G_2 D_1'  
     e(  5 -  5) =    -16.26322  eV     1   --> B_2  G_4 D_2'  
     e(  6 -  6) =    -16.12036  eV     1   --> A_1  G_1 D_1   
     e(  7 -  7) =    -16.07724  eV     1   --> B_1  G_3 D_2   
     e(  8 -  9) =    -16.06953  eV     2   --> E    G_5 D_5   
     e( 10 - 10) =    -16.05116  eV     1   --> A_1  G_1 D_1   
     e( 11 - 11) =     -3.98353  eV     1   --> A_1  G_1 D_1   
     e( 12 - 12) =      5.81359  eV     1   --> B_2  G_4 D_2'  
     e( 13 - 14) =      7.45429  eV     2   --> E    G_5 D_5   

 **************************************************************************

 **************************************************************************

                    xk=(  -0.30233,   0.00000,   0.00000  )

     Band symmetry, C_4v (4mm)  point group:

     e(  1 -  1) =    -16.33606  eV     1   --> B_2  G_4 D_2'  
     e(  2 -  3) =    -16.33525  eV     2   --> E    G_5 D_5   
     e(  4 -  4) =    -16.27870  eV     1   --> A_2  G_2 D_1'  
     e(  5 -  5) =    -16.25934  eV     1   --> B_2  G_4 D_2'  
     e(  6 -  6) =    -16.12498  eV     1   --> A_1  G_1 D_1   
     e(  7 -  7) =    -16.07897  eV     1   --> B_1  G_3 D_2   
     e(  8 -  9) =    -16.06786  eV     2   --> E    G_5 D_5   
     e( 10 - 10) =    -16.05066  eV     1   --> A_1  G_1 D_1   
     e( 11 - 11) =     -3.92864  eV     1   --> A_1  G_1 D_1   
     e( 12 - 12) =      5.59392  eV     1   --> B_2  G_4 D_2'  
     e( 13 - 14) =      7.33824  eV     2   --> E    G_5 D_5   

 **************************************************************************

 **************************************************************************

                    xk=(  -0.32558,   0.00000,   0.00000  )

     Band symmetry, C_4v (4mm)  point group:

     e(  1 -  3) =    -16.33637  eV     3   --> B_2  G_4 D_2'  
     e(  1 -  3) =    -16.33637  eV     3   --> E    G_5 D_5   
     e(  4 -  4) =    -16.27667  eV     1   --> A_2  G_2 D_1'  
     e(  5 -  5) =    -16.25533  eV     1   --> B_2  G_4 D_2'  
     e(  6 -  6) =    -16.12970  eV     1   --> A_1  G_1 D_1   
     e(  7 -  7) =    -16.08083  eV     1   --> B_1  G_3 D_2   
     e(  8 -  9) =    -16.06611  eV     2   --> E    G_5 D_5   
     e( 10 - 10) =    -16.05035  eV     1   --> A_1  G_1 D_1   
     e( 11 - 11) =     -3.86944  eV     1   --> A_1  G_1 D_1   
     e( 12 - 12) =      5.37504  eV     1   --> B_2  G_4 D_2'  
     e( 13 - 14) =      7.22332  eV     2   --> E    G_5 D_5   

 **************************************************************************

 **************************************************************************

                    xk=(  -0.34884,   0.00000,   0.00000  )

     Band symmetry, C_4v (4mm)  point group:

     e(  1 -  2) =    -16.33753  eV     2   --> E    G_5 D_5   
     e(  3 -  3) =    -16.33653  eV     1   --> B_2  G_4 D_2'  
     e(  4 -  4) =    -16.27451  eV     1   --> A_2  G_2 D_1'  
     e(  5 -  5) =    -16.25121  eV     1   --> B_2  G_4 D_2'  
     e(  6 -  6) =    -16.13452  eV     1   --> A_1  G_1 D_1   
     e(  7 -  7) =    -16.08282  eV     1   --> B_1  G_3 D_2   
     e(  8 -  9) =    -16.06429  eV     2   --> E    G_5 D_5   
     e( 10 - 10) =    -16.05023  eV     1   --> A_1  G_1 D_1   
     e( 11 - 11) =     -3.80593  eV     1   --> A_1  G_1 D_1   
     e( 12 - 12) =      5.15699  eV     1   --> B_2  G_4 D_2'  
     e( 13 - 14) =      7.11005  eV     2   --> E    G_5 D_5   

 **************************************************************************

 **************************************************************************

                    xk=(  -0.37209,   0.00000,   0.00000  )

     Band symmetry, C_4v (4mm)  point group:

     e(  1 -  2) =    -16.33872  eV     2   --> E    G_5 D_5   
     e(  3 -  3) =    -16.33655  eV     1   --> B_2  G_4 D_2'  
     e(  4 -  4) =    -16.27222  eV     1   --> A_2  G_2 D_1'  
     e(  5 -  5) =    -16.24698  eV     1   --> B_2  G_4 D_2'  
     e(  6 -  6) =    -16.13942  eV     1   --> A_1  G_1 D_1   
     e(  7 -  7) =    -16.08493  eV     1   --> B_1  G_3 D_2   
     e(  8 -  9) =    -16.06242  eV     2   --> E    G_5 D_5   
     e( 10 - 10) =    -16.05032  eV     1   --> A_1  G_1 D_1   
     e( 11 - 11) =     -3.73815  eV     1   --> A_1  G_1 D_1   
     e( 12 - 12) =      4.93978  eV     1   --> B_2  G_4 D_2'  
     e( 13 - 14) =      6.99884  eV     2   --> E    G_5 D_5   

 **************************************************************************

 **************************************************************************

                    xk=(  -0.39535,   0.00000,   0.00000  )

     Band symmetry, C_4v (4mm)  point group:

     e(  1 -  2) =    -16.33993  eV     2   --> E    G_5 D_5   
     e(  3 -  3) =    -16.33641  eV     1   --> B_2  G_4 D_2'  
     e(  4 -  4) =    -16.26981  eV     1   --> A_2  G_2 D_1'  
     e(  5 -  5) =    -16.24265  eV     1   --> B_2  G_4 D_2'  
     e(  6 -  6) =    -16.14441  eV     1   --> A_1  G_1 D_1   
     e(  7 -  7) =    -16.08717  eV     1   --> B_1  G_3 D_2   
     e(  8 -  9) =    -16.06050  eV     2   --> E    G_5 D_5   
     e( 10 - 10) =    -16.05060  eV     1   --> A_1  G_1 D_1   
     e( 11 - 11) =     -3.66610  eV     1   --> A_1  G_1 D_1   
     e( 12 - 12) =      4.72346  eV     1   --> B_2  G_4 D_2'  
     e( 13 - 14) =      6.89004  eV     2   --> E    G_5 D_5   

 **************************************************************************

 **************************************************************************

                    xk=(  -0.41860,   0.00000,   0.00000  )

     Band symmetry, C_4v (4mm)  point group:

     e(  1 -  2) =    -16.34116  eV     2   --> E    G_5 D_5   
     e(  3 -  3) =    -16.33612  eV     1   --> B_2  G_4 D_2'  
     e(  4 -  4) =    -16.26726  eV     1   --> A_2  G_2 D_1'  
     e(  5 -  5) =    -16.23824  eV     1   --> B_2  G_4 D_2'  
     e(  6 -  6) =    -16.14946  eV     1   --> A_1  G_1 D_1   
     e(  7 -  7) =    -16.08952  eV     1   --> B_1  G_3 D_2   
     e(  8 -  9) =    -16.05855  eV     2   --> E    G_5 D_5   
     e( 10 - 10) =    -16.05108  eV     1   --> A_1  G_1 D_1   
     e( 11 - 11) =     -3.58981  eV     1   --> A_1  G_1 D_1   
     e( 12 - 12) =      4.50805  eV     1   --> B_2  G_4 D_2'  
     e( 13 - 14) =      6.78396  eV     2   --> E    G_5 D_5   

 **************************************************************************

 **************************************************************************

                    xk=(  -0.44186,   0.00000,   0.00000  )

     Band symmetry, C_4v (4mm)  point group:

     e(  1 -  2) =    -16.34240  eV     2   --> E    G_5 D_5   
     e(  3 -  3) =    -16.33566  eV     1   --> B_2  G_4 D_2'  
     e(  4 -  4) =    -16.26460  eV     1   --> A_2  G_2 D_1'  
     e(  5 -  5) =    -16.23374  eV     1   --> B_2  G_4 D_2'  
     e(  6 -  6) =    -16.15457  eV     1   --> A_1  G_1 D_1   
     e(  7 -  7) =    -16.09199  eV     1   --> B_1  G_3 D_2   
     e(  8 -  9) =    -16.05657  eV     2   --> E    G_5 D_5   
     e( 10 - 10) =    -16.05175  eV     1   --> A_1  G_1 D_1   
     e( 11 - 11) =     -3.50930  eV     1   --> A_1  G_1 D_1   
     e( 12 - 12) =      4.29358  eV     1   --> B_2  G_4 D_2'  
     e( 13 - 14) =      6.68083  eV     2   --> E    G_5 D_5   

 **************************************************************************

 **************************************************************************

                    xk=(  -0.46512,   0.00000,   0.00000  )

     Band symmetry, C_4v (4mm)  point group:

     e(  1 -  2) =    -16.34364  eV     2   --> E    G_5 D_5   
     e(  3 -  3) =    -16.33505  eV     1   --> B_2  G_4 D_2'  
     e(  4 -  4) =    -16.26182  eV     1   --> A_2  G_2 D_1'  
     e(  5 -  5) =    -16.22917  eV     1   --> B_2  G_4 D_2'  
     e(  6 -  6) =    -16.15974  eV     1   --> A_1  G_1 D_1   
     e(  7 -  7) =    -16.09458  eV     1   --> B_1  G_3 D_2   
     e(  8 -  9) =    -16.05458  eV     2   --> E    G_5 D_5   
     e( 10 - 10) =    -16.05262  eV     1   --> A_1  G_1 D_1   
     e( 11 - 11) =     -3.42460  eV     1   --> A_1  G_1 D_1   
     e( 12 - 12) =      4.08010  eV     1   --> B_2  G_4 D_2'  
     e( 13 - 14) =      6.58087  eV     2   --> E    G_5 D_5   

 **************************************************************************

 **************************************************************************

                    xk=(  -0.48837,   0.00000,   0.00000  )

     Band symmetry, C_4v (4mm)  point group:

     e(  1 -  2) =    -16.34487  eV     2   --> E    G_5 D_5   
     e(  3 -  3) =    -16.33427  eV     1   --> B_2  G_4 D_2'  
     e(  4 -  4) =    -16.25893  eV     1   --> A_2  G_2 D_1'  
     e(  5 -  5) =    -16.22453  eV     1   --> B_2  G_4 D_2'  
     e(  6 -  6) =    -16.16496  eV     1   --> A_1  G_1 D_1   
     e(  7 -  7) =    -16.09727  eV     1   --> B_1  G_3 D_2   
     e(  8 -  8) =    -16.05369  eV     1   --> A_1  G_1 D_1   
     e(  9 - 10) =    -16.05259  eV     2   --> E    G_5 D_5   
     e( 11 - 11) =     -3.33575  eV     1   --> A_1  G_1 D_1   
     e( 12 - 12) =      3.86763  eV     1   --> B_2  G_4 D_2'  
     e( 13 - 14) =      6.48427  eV     2   --> E    G_5 D_5   

 **************************************************************************

 **************************************************************************

                    xk=(  -0.51163,   0.00000,   0.00000  )

     Band symmetry, C_4v (4mm)  point group:

     e(  1 -  2) =    -16.34610  eV     2   --> E    G_5 D_5   
     e(  3 -  3) =    -16.33332  eV     1   --> B_2  G_4 D_2'  
     e(  4 -  4) =    -16.25593  eV     1   --> A_2  G_2 D_1'  
     e(  5 -  5) =    -16.21983  eV     1   --> B_2  G_4 D_2'  
     e(  6 -  6) =    -16.17022  eV     1   --> A_1  G_1 D_1   
     e(  7 -  7) =    -16.10008  eV     1   --> B_1  G_3 D_2   
     e(  8 -  8) =    -16.05494  eV     1   --> A_1  G_1 D_1   
     e(  9 - 10) =    -16.05061  eV     2   --> E    G_5 D_5   
     e( 11 - 11) =     -3.24276  eV     1   --> A_1  G_1 D_1   
     e( 12 - 12) =      3.65624  eV     1   --> B_2  G_4 D_2'  
     e( 13 - 14) =      6.39118  eV     2   --> E    G_5 D_5   

 **************************************************************************

 **************************************************************************

                    xk=(  -0.53488,   0.00000,   0.00000  )

     Band symmetry, C_4v (4mm)  point group:

     e(  1 -  2) =    -16.34731  eV     2   --> E    G_5 D_5   
     e(  3 -  3) =    -16.33220  eV     1   --> B_2  G_4 D_2'  
     e(  4 -  4) =    -16.25282  eV     1   --> A_2  G_2 D_1'  
     e(  5 -  5) =    -16.21508  eV     1   --> B_2  G_4 D_2'  
     e(  6 -  6) =    -16.17550  eV     1   --> A_1  G_1 D_1   
     e(  7 -  7) =    -16.10298  eV     1   --> B_1  G_3 D_2   
     e(  8 -  8) =    -16.05639  eV     1   --> A_1  G_1 D_1   
     e(  9 - 10) =    -16.04864  eV     2   --> E    G_5 D_5   
     e( 11 - 11) =     -3.14567  eV     1   --> A_1  G_1 D_1   
     e( 12 - 12) =      3.44596  eV     1   --> B_2  G_4 D_2'  
     e( 13 - 14) =      6.30176  eV     2   --> E    G_5 D_5   

 **************************************************************************

 **************************************************************************

                    xk=(  -0.55814,   0.00000,   0.00000  )

     Band symmetry, C_4v (4mm)  point group:

     e(  1 -  2) =    -16.34850  eV     2   --> E    G_5 D_5   
     e(  3 -  3) =    -16.33092  eV     1   --> B_2  G_4 D_2'  
     e(  4 -  4) =    -16.24962  eV     1   --> A_2  G_2 D_1'  
     e(  5 -  5) =    -16.21028  eV     1   --> B_2  G_4 D_2'  
     e(  6 -  6) =    -16.18081  eV     1   --> A_1  G_1 D_1   
     e(  7 -  7) =    -16.10599  eV     1   --> B_1  G_3 D_2   
     e(  8 -  8) =    -16.05802  eV     1   --> A_1  G_1 D_1   
     e(  9 - 10) =    -16.04670  eV     2   --> E    G_5 D_5   
     e( 11 - 11) =     -3.04451  eV     1   --> A_1  G_1 D_1   
     e( 12 - 12) =      3.23686  eV     1   --> B_2  G_4 D_2'  
     e( 13 - 14) =      6.21610  eV     2   --> E    G_5 D_5   

 **************************************************************************

 **************************************************************************

                    xk=(  -0.58140,   0.00000,   0.00000  )

     Band symmetry, C_4v (4mm)  point group:

     e(  1 -  2) =    -16.34966  eV     2   --> E    G_5 D_5   
     e(  3 -  3) =    -16.32947  eV     1   --> B_2  G_4 D_2'  
     e(  4 -  4) =    -16.24633  eV     1   --> A_2  G_2 D_1'  
     e(  5 -  5) =    -16.20544  eV     1   --> B_2  G_4 D_2'  
     e(  6 -  6) =    -16.18614  eV     1   --> A_1  G_1 D_1   
     e(  7 -  7) =    -16.10910  eV     1   --> B_1  G_3 D_2   
     e(  8 -  8) =    -16.05984  eV     1   --> A_1  G_1 D_1   
     e(  9 - 10) =    -16.04480  eV     2   --> E    G_5 D_5   
     e( 11 - 11) =     -2.93932  eV     1   --> A_1  G_1 D_1   
     e( 12 - 12) =      3.02898  eV     1   --> B_2  G_4 D_2'  
     e( 13 - 14) =      6.13434  eV     2   --> E    G_5 D_5   

 **************************************************************************

 **************************************************************************

                    xk=(  -0.60465,   0.00000,   0.00000  )

     Band symmetry, C_4v (4mm)  point group:

     e(  1 -  2) =    -16.35078  eV     2   --> E    G_5 D_5   
     e(  3 -  3) =    -16.32785  eV     1   --> B_2  G_4 D_2'  
     e(  4 -  4) =    -16.24294  eV     1   --> A_2  G_2 D_1'  
     e(  5 -  5) =    -16.20057  eV     1   --> B_2  G_4 D_2'  
     e(  6 -  6) =    -16.19147  eV     1   --> A_1  G_1 D_1   
     e(  7 -  7) =    -16.11229  eV     1   --> B_1  G_3 D_2   
     e(  8 -  8) =    -16.06183  eV     1   --> A_1  G_1 D_1   
     e(  9 - 10) =    -16.04294  eV     2   --> E    G_5 D_5   
     e( 11 - 11) =     -2.83014  eV     1   --> A_1  G_1 D_1   
     e( 12 - 12) =      2.82241  eV     1   --> B_2  G_4 D_2'  
     e( 13 - 14) =      6.05656  eV     2   --> E    G_5 D_5   

 **************************************************************************

 **************************************************************************

                    xk=(  -0.62791,   0.00000,   0.00000  )

     Band symmetry, C_4v (4mm)  point group:

     e(  1 -  2) =    -16.35187  eV     2   --> E    G_5 D_5   
     e(  3 -  3) =    -16.32605  eV     1   --> B_2  G_4 D_2'  
     e(  4 -  4) =    -16.23947  eV     1   --> A_2  G_2 D_1'  
     e(  5 -  5) =    -16.19680  eV     1   --> A_1  G_1 D_1   
     e(  6 -  6) =    -16.19567  eV     1   --> B_2  G_4 D_2'  
     e(  7 -  7) =    -16.11558  eV     1   --> B_1  G_3 D_2   
     e(  8 -  8) =    -16.06401  eV     1   --> A_1  G_1 D_1   
     e(  9 - 10) =    -16.04114  eV     2   --> E    G_5 D_5   
     e( 11 - 11) =     -2.71700  eV     1   --> A_1  G_1 D_1   
     e( 12 - 12) =      2.61719  eV     1   --> B_2  G_4 D_2'  
     e( 13 - 14) =      5.98284  eV     2   --> E    G_5 D_5   

 **************************************************************************

 **************************************************************************

                    xk=(  -0.65116,   0.00000,   0.00000  )

     Band symmetry, C_4v (4mm)  point group:

     e(  1 -  2) =    -16.35291  eV     2   --> E    G_5 D_5   
     e(  3 -  3) =    -16.32409  eV     1   --> B_2  G_4 D_2'  
     e(  4 -  4) =    -16.23592  eV     1   --> A_2  G_2 D_1'  
     e(  5 -  5) =    -16.20212  eV     1   --> A_1  G_1 D_1   
     e(  6 -  6) =    -16.19075  eV     1   --> B_2  G_4 D_2'  
     e(  7 -  7) =    -16.11896  eV     1   --> B_1  G_3 D_2   
     e(  8 -  8) =    -16.06635  eV     1   --> A_1  G_1 D_1   
     e(  9 - 10) =    -16.03941  eV     2   --> E    G_5 D_5   
     e( 11 - 11) =     -2.59996  eV     1   --> A_1  G_1 D_1   
     e( 12 - 12) =      2.41342  eV     1   --> B_2  G_4 D_2'  
     e( 13 - 14) =      5.91327  eV     2   --> E    G_5 D_5   

 **************************************************************************

 **************************************************************************

                    xk=(  -0.67442,   0.00000,   0.00000  )

     Band symmetry, C_4v (4mm)  point group:

     e(  1 -  2) =    -16.35391  eV     2   --> E    G_5 D_5   
     e(  3 -  3) =    -16.32197  eV     1   --> B_2  G_4 D_2'  
     e(  4 -  4) =    -16.23229  eV     1   --> A_2  G_2 D_1'  
     e(  5 -  5) =    -16.20743  eV     1   --> A_1  G_1 D_1   
     e(  6 -  6) =    -16.18582  eV     1   --> B_2  G_4 D_2'  
     e(  7 -  7) =    -16.12241  eV     1   --> B_1  G_3 D_2   
     e(  8 -  8) =    -16.06887  eV     1   --> A_1  G_1 D_1   
     e(  9 - 10) =    -16.03774  eV     2   --> E    G_5 D_5   
     e( 11 - 11) =     -2.47905  eV     1   --> A_1  G_1 D_1   
     e( 12 - 12) =      2.21116  eV     1   --> B_2  G_4 D_2'  
     e( 13 - 14) =      5.84792  eV     2   --> E    G_5 D_5   

 **************************************************************************

 **************************************************************************

                    xk=(  -0.69767,   0.00000,   0.00000  )

     Band symmetry, C_4v (4mm)  point group:

     e(  1 -  2) =    -16.35486  eV     2   --> E    G_5 D_5   
     e(  3 -  3) =    -16.31968  eV     1   --> B_2  G_4 D_2'  
     e(  4 -  4) =    -16.22860  eV     1   --> A_2  G_2 D_1'  
     e(  5 -  5) =    -16.21271  eV     1   --> A_1  G_1 D_1   
     e(  6 -  6) =    -16.18088  eV     1   --> B_2  G_4 D_2'  
     e(  7 -  7) =    -16.12594  eV     1   --> B_1  G_3 D_2   
     e(  8 -  8) =    -16.07155  eV     1   --> A_1  G_1 D_1   
     e(  9 - 10) =    -16.03616  eV     2   --> E    G_5 D_5   
     e( 11 - 11) =     -2.35432  eV     1   --> A_1  G_1 D_1   
     e( 12 - 12) =      2.01049  eV     1   --> B_2  G_4 D_2'  
     e( 13 - 14) =      5.78683  eV     2   --> E    G_5 D_5   

 **************************************************************************

 **************************************************************************

                    xk=(  -0.72093,   0.00000,   0.00000  )

     Band symmetry, C_4v (4mm)  point group:

     e(  1 -  2) =    -16.35575  eV     2   --> E    G_5 D_5   
     e(  3 -  3) =    -16.31722  eV     1   --> B_2  G_4 D_2'  
     e(  4 -  4) =    -16.22484  eV     1   --> A_2  G_2 D_1'  
     e(  5 -  5) =    -16.21796  eV     1   --> A_1  G_1 D_1   
     e(  6 -  6) =    -16.17595  eV     1   --> B_2  G_4 D_2'  
     e(  7 -  7) =    -16.12954  eV     1   --> B_1  G_3 D_2   
     e(  8 -  8) =    -16.07439  eV     1   --> A_1  G_1 D_1   
     e(  9 - 10) =    -16.03466  eV     2   --> E    G_5 D_5   
     e( 11 - 11) =     -2.22583  eV     1   --> A_1  G_1 D_1   
     e( 12 - 12) =      1.81151  eV     1   --> B_2  G_4 D_2'  
     e( 13 - 14) =      5.73007  eV     2   --> E    G_5 D_5   

 **************************************************************************

 **************************************************************************

                    xk=(  -0.74419,   0.00000,   0.00000  )

     Band symmetry, C_4v (4mm)  point group:

     e(  1 -  2) =    -16.35658  eV     2   --> E    G_5 D_5   
     e(  3 -  3) =    -16.31460  eV     1   --> B_2  G_4 D_2'  
     e(  4 -  4) =    -16.22317  eV     1   --> A_1  G_1 D_1   
     e(  5 -  5) =    -16.22102  eV     1   --> A_2  G_2 D_1'  
     e(  6 -  6) =    -16.17101  eV     1   --> B_2  G_4 D_2'  
     e(  7 -  7) =    -16.13322  eV     1   --> B_1  G_3 D_2   
     e(  8 -  8) =    -16.07739  eV     1   --> A_1  G_1 D_1   
     e(  9 - 10) =    -16.03326  eV     2   --> E    G_5 D_5   
     e( 11 - 11) =     -2.09362  eV     1   --> A_1  G_1 D_1   
     e( 12 - 12) =      1.61429  eV     1   --> B_2  G_4 D_2'  
     e( 13 - 14) =      5.67769  eV     2   --> E    G_5 D_5   

 **************************************************************************

 **************************************************************************

                    xk=(  -0.76744,   0.00000,   0.00000  )

     Band symmetry, C_4v (4mm)  point group:

     e(  1 -  2) =    -16.35735  eV     2   --> E    G_5 D_5   
     e(  3 -  3) =    -16.31182  eV     1   --> B_2  G_4 D_2'  
     e(  4 -  4) =    -16.22834  eV     1   --> A_1  G_1 D_1   
     e(  5 -  5) =    -16.21715  eV     1   --> A_2  G_2 D_1'  
     e(  6 -  6) =    -16.16610  eV     1   --> B_2  G_4 D_2'  
     e(  7 -  7) =    -16.13695  eV     1   --> B_1  G_3 D_2   
     e(  8 -  8) =    -16.08054  eV     1   --> A_1  G_1 D_1   
     e(  9 - 10) =    -16.03196  eV     2   --> E    G_5 D_5   
     e( 11 - 11) =     -1.95775  eV     1   --> A_1  G_1 D_1   
     e( 12 - 12) =      1.41894  eV     1   --> B_2  G_4 D_2'  
     e( 13 - 14) =      5.62973  eV     2   --> E    G_5 D_5   

 **************************************************************************

 **************************************************************************

                    xk=(  -0.79070,   0.00000,   0.00000  )

     Band symmetry, C_4v (4mm)  point group:

     e(  1 -  2) =    -16.35806  eV     2   --> E    G_5 D_5   
     e(  3 -  3) =    -16.30888  eV     1   --> B_2  G_4 D_2'  
     e(  4 -  4) =    -16.23345  eV     1   --> A_1  G_1 D_1   
     e(  5 -  5) =    -16.21323  eV     1   --> A_2  G_2 D_1'  
     e(  6 -  6) =    -16.16120  eV     1   --> B_2  G_4 D_2'  
     e(  7 -  7) =    -16.14074  eV     1   --> B_1  G_3 D_2   
     e(  8 -  8) =    -16.08383  eV     1   --> A_1  G_1 D_1   
     e(  9 - 10) =    -16.03076  eV     2   --> E    G_5 D_5   
     e( 11 - 11) =     -1.81828  eV     1   --> A_1  G_1 D_1   
     e( 12 - 12) =      1.22553  eV     1   --> B_2  G_4 D_2'  
     e( 13 - 14) =      5.58623  eV     2   --> E    G_5 D_5   

 **************************************************************************

 **************************************************************************

                    xk=(  -0.81395,   0.00000,   0.00000  )

     Band symmetry, C_4v (4mm)  point group:

     e(  1 -  2) =    -16.35869  eV     2   --> E    G_5 D_5   
     e(  3 -  3) =    -16.30579  eV     1   --> B_2  G_4 D_2'  
     e(  4 -  4) =    -16.23850  eV     1   --> A_1  G_1 D_1   
     e(  5 -  5) =    -16.20927  eV     1   --> A_2  G_2 D_1'  
     e(  6 -  6) =    -16.15632  eV     1   --> B_2  G_4 D_2'  
     e(  7 -  7) =    -16.14459  eV     1   --> B_1  G_3 D_2   
     e(  8 -  8) =    -16.08726  eV     1   --> A_1  G_1 D_1   
     e(  9 - 10) =    -16.02968  eV     2   --> E    G_5 D_5   
     e( 11 - 11) =     -1.67528  eV     1   --> A_1  G_1 D_1   
     e( 12 - 12) =      1.03416  eV     1   --> B_2  G_4 D_2'  
     e( 13 - 14) =      5.54722  eV     2   --> E    G_5 D_5   

 **************************************************************************

 **************************************************************************

                    xk=(  -0.83721,   0.00000,   0.00000  )

     Band symmetry, C_4v (4mm)  point group:

     e(  1 -  2) =    -16.35926  eV     2   --> E    G_5 D_5   
     e(  3 -  3) =    -16.30254  eV     1   --> B_2  G_4 D_2'  
     e(  4 -  4) =    -16.24348  eV     1   --> A_1  G_1 D_1   
     e(  5 -  5) =    -16.20527  eV     1   --> A_2  G_2 D_1'  
     e(  6 -  6) =    -16.15148  eV     1   --> B_2  G_4 D_2'  
     e(  7 -  7) =    -16.14849  eV     1   --> B_1  G_3 D_2   
     e(  8 -  8) =    -16.09083  eV     1   --> A_1  G_1 D_1   
     e(  9 - 10) =    -16.02871  eV     2   --> E    G_5 D_5   
     e( 11 - 11) =     -1.52879  eV     1   --> A_1  G_1 D_1   
     e( 12 - 12) =      0.84493  eV     1   --> B_2  G_4 D_2'  
     e( 13 - 14) =      5.51273  eV     2   --> E    G_5 D_5   

 **************************************************************************

 **************************************************************************

                    xk=(  -0.86047,   0.00000,   0.00000  )

     Band symmetry, C_4v (4mm)  point group:

     e(  1 -  2) =    -16.35976  eV     2   --> E    G_5 D_5   
     e(  3 -  3) =    -16.29915  eV     1   --> B_2  G_4 D_2'  
     e(  4 -  4) =    -16.24838  eV     1   --> A_1  G_1 D_1   
     e(  5 -  5) =    -16.20124  eV     1   --> A_2  G_2 D_1'  
     e(  6 -  6) =    -16.15243  eV     1   --> B_1  G_3 D_2   
     e(  7 -  7) =    -16.14668  eV     1   --> B_2  G_4 D_2'  
     e(  8 -  8) =    -16.09453  eV     1   --> A_1  G_1 D_1   
     e(  9 - 10) =    -16.02786  eV     2   --> E    G_5 D_5   
     e( 11 - 11) =     -1.37890  eV     1   --> A_1  G_1 D_1   
     e( 12 - 12) =      0.65793  eV     1   --> B_2  G_4 D_2'  
     e( 13 - 14) =      5.48279  eV     2   --> E    G_5 D_5   

 **************************************************************************

 **************************************************************************

                    xk=(  -0.88372,   0.00000,   0.00000  )

     Band symmetry, C_4v (4mm)  point group:

     e(  1 -  2) =    -16.36018  eV     2   --> E    G_5 D_5   
     e(  3 -  3) =    -16.29561  eV     1   --> B_2  G_4 D_2'  
     e(  4 -  4) =    -16.25321  eV     1   --> A_1  G_1 D_1   
     e(  5 -  5) =    -16.19718  eV     1   --> A_2  G_2 D_1'  
     e(  6 -  6) =    -16.15641  eV     1   --> B_1  G_3 D_2   
     e(  7 -  7) =    -16.14192  eV     1   --> B_2  G_4 D_2'  
     e(  8 -  8) =    -16.09835  eV     1   --> A_1  G_1 D_1   
     e(  9 - 10) =    -16.02713  eV     2   --> E    G_5 D_5   
     e( 11 - 11) =     -1.22567  eV     1   --> A_1  G_1 D_1   
     e( 12 - 12) =      0.47325  eV     1   --> B_2  G_4 D_2'  
     e( 13 - 14) =      5.45742  eV     2   --> E    G_5 D_5   

 **************************************************************************

 **************************************************************************

                    xk=(  -0.90698,   0.00000,   0.00000  )

     Band symmetry, C_4v (4mm)  point group:

     e(  1 -  2) =    -16.36053  eV     2   --> E    G_5 D_5   
     e(  3 -  3) =    -16.29192  eV     1   --> B_2  G_4 D_2'  
     e(  4 -  4) =    -16.25794  eV     1   --> A_1  G_1 D_1   
     e(  5 -  5) =    -16.19311  eV     1   --> A_2  G_2 D_1'  
     e(  6 -  6) =    -16.16042  eV     1   --> B_1  G_3 D_2   
     e(  7 -  7) =    -16.13722  eV     1   --> B_2  G_4 D_2'  
     e(  8 -  8) =    -16.10228  eV     1   --> A_1  G_1 D_1   
     e(  9 - 10) =    -16.02654  eV     2   --> E    G_5 D_5   
     e( 11 - 11) =     -1.06917  eV     1   --> A_1  G_1 D_1   
     e( 12 - 12) =      0.29099  eV     1   --> B_2  G_4 D_2'  
     e( 13 - 14) =      5.43663  eV     2   --> E    G_5 D_5   

 **************************************************************************

 **************************************************************************

                    xk=(  -0.93023,   0.00000,   0.00000  )

     Band symmetry, C_4v (4mm)  point group:

     e(  1 -  2) =    -16.36080  eV     2   --> E    G_5 D_5   
     e(  3 -  3) =    -16.28811  eV     1   --> B_2  G_4 D_2'  
     e(  4 -  4) =    -16.26258  eV     1   --> A_1  G_1 D_1   
     e(  5 -  5) =    -16.18902  eV     1   --> A_2  G_2 D_1'  
     e(  6 -  6) =    -16.16446  eV     1   --> B_1  G_3 D_2   
     e(  7 -  7) =    -16.13258  eV     1   --> B_2  G_4 D_2'  
     e(  8 -  8) =    -16.10633  eV     1   --> A_1  G_1 D_1   
     e(  9 - 10) =    -16.02607  eV     2   --> E    G_5 D_5   
     e( 11 - 11) =     -0.90947  eV     1   --> A_1  G_1 D_1   
     e( 12 - 12) =      0.11125  eV     1   --> B_2  G_4 D_2'  
     e( 13 - 14) =      5.42045  eV     2   --> E    G_5 D_5   

 **************************************************************************

 **************************************************************************

                    xk=(  -0.95349,   0.00000,   0.00000  )

     Band symmetry, C_4v (4mm)  point group:

     e(  1 -  2) =    -16.36100  eV     2   --> E    G_5 D_5   
     e(  3 -  3) =    -16.28416  eV     1   --> B_2  G_4 D_2'  
     e(  4 -  4) =    -16.26712  eV     1   --> A_1  G_1 D_1   
     e(  5 -  5) =    -16.18491  eV     1   --> A_2  G_2 D_1'  
     e(  6 -  6) =    -16.16853  eV     1   --> B_1  G_3 D_2   
     e(  7 -  7) =    -16.12800  eV     1   --> B_2  G_4 D_2'  
     e(  8 -  8) =    -16.11048  eV     1   --> A_1  G_1 D_1   
     e(  9 - 10) =    -16.02573  eV     2   --> E    G_5 D_5   
     e( 11 - 11) =     -0.74666  eV     1   --> A_1  G_1 D_1   
     e( 12 - 12) =     -0.06590  eV     1   --> B_2  G_4 D_2'  
     e( 13 - 14) =      5.40889  eV     2   --> E    G_5 D_5   

 **************************************************************************

 **************************************************************************

                    xk=(  -0.97674,   0.00000,   0.00000  )

     Band symmetry, C_4v (4mm)  point group:

     e(  1 -  2) =    -16.36112  eV     2   --> E    G_5 D_5   
     e(  3 -  3) =    -16.28008  eV     1   --> B_2  G_4 D_2'  
     e(  4 -  4) =    -16.27155  eV     1   --> A_1  G_1 D_1   
     e(  5 -  5) =    -16.18081  eV     1   --> A_2  G_2 D_1'  
     e(  6 -  6) =    -16.17261  eV     1   --> B_1  G_3 D_2   
     e(  7 -  7) =    -16.12350  eV     1   --> B_2  G_4 D_2'  
     e(  8 -  8) =    -16.11473  eV     1   --> A_1  G_1 D_1   
     e(  9 - 10) =    -16.02553  eV     2   --> E    G_5 D_5   
     e( 11 - 11) =     -0.58082  eV     1   --> A_1  G_1 D_1   
     e( 12 - 12) =     -0.24035  eV     1   --> B_2  G_4 D_2'  
     e( 13 - 14) =      5.40195  eV     2   --> E    G_5 D_5   

 **************************************************************************

 **************************************************************************

                    xk=(  -1.00000,   0.00000,   0.00000  )

     zone border point and non-symmorphic group 
     symmetry decomposition not available

 **************************************************************************

 **************************************************************************

                    xk=(  -1.00000,   0.01786,   0.01786  )

     zone border point and non-symmorphic group 
     symmetry decomposition not available

 **************************************************************************

 **************************************************************************

                    xk=(  -1.00000,   0.03571,   0.03571  )

     zone border point and non-symmorphic group 
     symmetry decomposition not available

 **************************************************************************

 **************************************************************************

                    xk=(  -1.00000,   0.05357,   0.05357  )

     zone border point and non-symmorphic group 
     symmetry decomposition not available

 **************************************************************************

 **************************************************************************

                    xk=(  -1.00000,   0.07143,   0.07143  )

     zone border point and non-symmorphic group 
     symmetry decomposition not available

 **************************************************************************

 **************************************************************************

                    xk=(  -1.00000,   0.08929,   0.08929  )

     zone border point and non-symmorphic group 
     symmetry decomposition not available

 **************************************************************************

 **************************************************************************

                    xk=(  -1.00000,   0.10714,   0.10714  )

     zone border point and non-symmorphic group 
     symmetry decomposition not available

 **************************************************************************

 **************************************************************************

                    xk=(  -1.00000,   0.12500,   0.12500  )

     zone border point and non-symmorphic group 
     symmetry decomposition not available

 **************************************************************************

 **************************************************************************

                    xk=(  -1.00000,   0.14286,   0.14286  )

     zone border point and non-symmorphic group 
     symmetry decomposition not available

 **************************************************************************

 **************************************************************************

                    xk=(  -1.00000,   0.16071,   0.16071  )

     zone border point and non-symmorphic group 
     symmetry decomposition not available

 **************************************************************************

 **************************************************************************

                    xk=(  -1.00000,   0.17857,   0.17857  )

     zone border point and non-symmorphic group 
     symmetry decomposition not available

 **************************************************************************

 **************************************************************************

                    xk=(  -1.00000,   0.19643,   0.19643  )

     zone border point and non-symmorphic group 
     symmetry decomposition not available

 **************************************************************************

 **************************************************************************

                    xk=(  -1.00000,   0.21429,   0.21429  )

     zone border point and non-symmorphic group 
     symmetry decomposition not available

 **************************************************************************

 **************************************************************************

                    xk=(  -1.00000,   0.23214,   0.23214  )

     zone border point and non-symmorphic group 
     symmetry decomposition not available

 **************************************************************************

 **************************************************************************

                    xk=(  -1.00000,   0.25000,   0.25000  )

     zone border point and non-symmorphic group 
     symmetry decomposition not available

 **************************************************************************

 **************************************************************************

                    xk=(  -0.75000,   0.75000,   0.00000  )

     Band symmetry, C_2v (mm2)  point group:

     e(  1 -  1) =    -16.37824  eV     1   --> A_1  D_1  S_1  
     e(  2 -  2) =    -16.36224  eV     1   --> A_2  D_2  S_2  
     e(  3 -  3) =    -16.27353  eV     1   --> B_1  D_3  S_3  
     e(  4 -  4) =    -16.21458  eV     1   --> A_1  D_1  S_1  
     e(  5 -  5) =    -16.18848  eV     1   --> A_2  D_2  S_2  
     e(  6 -  6) =    -16.17491  eV     1   --> B_1  D_3  S_3  
     e(  7 -  7) =    -16.16970  eV     1   --> B_2  D_4  S_4  
     e(  8 -  8) =    -16.12009  eV     1   --> A_1  D_1  S_1  
     e(  9 -  9) =    -16.02486  eV     1   --> B_2  D_4  S_4  
     e( 10 - 10) =    -16.01047  eV     1   --> B_1  D_3  S_3  
     e( 11 - 11) =     -0.88287  eV     1   --> A_1  D_1  S_1  
     e( 12 - 12) =      0.17947  eV     1   --> B_1  D_3  S_3  
     e( 13 - 13) =      4.14055  eV     1   --> A_1  D_1  S_1  
     e( 14 - 14) =      5.84025  eV     1   --> A_2  D_2  S_2  

 **************************************************************************

 **************************************************************************

                    xk=(  -0.73370,   0.73370,   0.00000  )

     Band symmetry, C_2v (mm2)  point group:

     e(  1 -  1) =    -16.37879  eV     1   --> A_1  D_1  S_1  
     e(  2 -  2) =    -16.36232  eV     1   --> A_2  D_2  S_2  
     e(  3 -  3) =    -16.27337  eV     1   --> B_1  D_3  S_3  
     e(  4 -  4) =    -16.20853  eV     1   --> A_1  D_1  S_1  
     e(  5 -  5) =    -16.19001  eV     1   --> A_2  D_2  S_2  
     e(  6 -  6) =    -16.18043  eV     1   --> B_1  D_3  S_3  
     e(  7 -  7) =    -16.16874  eV     1   --> B_2  D_4  S_4  
     e(  8 -  8) =    -16.12015  eV     1   --> A_1  D_1  S_1  
     e(  9 -  9) =    -16.02485  eV     1   --> B_2  D_4  S_4  
     e( 10 - 10) =    -16.01004  eV     1   --> B_1  D_3  S_3  
     e( 11 - 11) =     -0.95666  eV     1   --> A_1  D_1  S_1  
     e( 12 - 12) =      0.25911  eV     1   --> B_1  D_3  S_3  
     e( 13 - 13) =      4.09341  eV     1   --> A_1  D_1  S_1  
     e( 14 - 14) =      5.89737  eV     1   --> A_2  D_2  S_2  

 **************************************************************************

 **************************************************************************

                    xk=(  -0.71739,   0.71739,   0.00000  )

     Band symmetry, C_2v (mm2)  point group:

     e(  1 -  1) =    -16.37916  eV     1   --> A_1  D_1  S_1  
     e(  2 -  2) =    -16.36239  eV     1   --> A_2  D_2  S_2  
     e(  3 -  3) =    -16.27325  eV     1   --> B_1  D_3  S_3  
     e(  4 -  4) =    -16.20243  eV     1   --> A_1  D_1  S_1  
     e(  5 -  5) =    -16.19162  eV     1   --> A_2  D_2  S_2  
     e(  6 -  6) =    -16.18598  eV     1   --> B_1  D_3  S_3  
     e(  7 -  7) =    -16.16771  eV     1   --> B_2  D_4  S_4  
     e(  8 -  8) =    -16.12021  eV     1   --> A_1  D_1  S_1  
     e(  9 -  9) =    -16.02486  eV     1   --> B_2  D_4  S_4  
     e( 10 - 10) =    -16.00980  eV     1   --> B_1  D_3  S_3  
     e( 11 - 11) =     -1.03613  eV     1   --> A_1  D_1  S_1  
     e( 12 - 12) =      0.34377  eV     1   --> B_1  D_3  S_3  
     e( 13 - 13) =      4.05808  eV     1   --> A_1  D_1  S_1  
     e( 14 - 14) =      5.95749  eV     1   --> A_2  D_2  S_2  

 **************************************************************************

 **************************************************************************

                    xk=(  -0.70109,   0.70109,   0.00000  )

     Band symmetry, C_2v (mm2)  point group:

     e(  1 -  1) =    -16.37935  eV     1   --> A_1  D_1  S_1  
     e(  2 -  2) =    -16.36244  eV     1   --> A_2  D_2  S_2  
     e(  3 -  3) =    -16.27318  eV     1   --> B_1  D_3  S_3  
     e(  4 -  4) =    -16.19631  eV     1   --> A_1  D_1  S_1  
     e(  5 -  5) =    -16.19330  eV     1   --> A_2  D_2  S_2  
     e(  6 -  6) =    -16.19152  eV     1   --> B_1  D_3  S_3  
     e(  7 -  7) =    -16.16661  eV     1   --> B_2  D_4  S_4  
     e(  8 -  8) =    -16.12024  eV     1   --> A_1  D_1  S_1  
     e(  9 -  9) =    -16.02489  eV     1   --> B_2  D_4  S_4  
     e( 10 - 10) =    -16.00976  eV     1   --> B_1  D_3  S_3  
     e( 11 - 11) =     -1.12099  eV     1   --> A_1  D_1  S_1  
     e( 12 - 12) =      0.43345  eV     1   --> B_1  D_3  S_3  
     e( 13 - 13) =      4.03464  eV     1   --> A_1  D_1  S_1  
     e( 14 - 14) =      6.02048  eV     1   --> A_2  D_2  S_2  

 **************************************************************************

 **************************************************************************

                    xk=(  -0.68478,   0.68478,  -0.00000  )

     Band symmetry, C_2v (mm2)  point group:

     e(  1 -  1) =    -16.37935  eV     1   --> A_1  D_1  S_1  
     e(  2 -  2) =    -16.36247  eV     1   --> A_2  D_2  S_2  
     e(  3 -  3) =    -16.27317  eV     1   --> B_1  D_3  S_3  
     e(  4 -  4) =    -16.19703  eV     1   --> B_1  D_3  S_3  
     e(  5 -  5) =    -16.19507  eV     1   --> A_2  D_2  S_2  
     e(  6 -  6) =    -16.19018  eV     1   --> A_1  D_1  S_1  
     e(  7 -  7) =    -16.16545  eV     1   --> B_2  D_4  S_4  
     e(  8 -  8) =    -16.12025  eV     1   --> A_1  D_1  S_1  
     e(  9 -  9) =    -16.02494  eV     1   --> B_2  D_4  S_4  
     e( 10 - 10) =    -16.00991  eV     1   --> B_1  D_3  S_3  
     e( 11 - 11) =     -1.21082  eV     1   --> A_1  D_1  S_1  
     e( 12 - 12) =      0.52813  eV     1   --> B_1  D_3  S_3  
     e( 13 - 13) =      4.02304  eV     1   --> A_1  D_1  S_1  
     e( 14 - 14) =      6.08623  eV     1   --> A_2  D_2  S_2  

 **************************************************************************

 **************************************************************************

                    xk=(  -0.66848,   0.66848,  -0.00000  )

     Band symmetry, C_2v (mm2)  point group:

     e(  1 -  1) =    -16.37917  eV     1   --> A_1  D_1  S_1  
     e(  2 -  2) =    -16.36249  eV     1   --> A_2  D_2  S_2  
     e(  3 -  3) =    -16.27323  eV     1   --> B_1  D_3  S_3  
     e(  4 -  4) =    -16.20248  eV     1   --> B_1  D_3  S_3  
     e(  5 -  5) =    -16.19691  eV     1   --> A_2  D_2  S_2  
     e(  6 -  6) =    -16.18406  eV     1   --> A_1  D_1  S_1  
     e(  7 -  7) =    -16.16421  eV     1   --> B_2  D_4  S_4  
     e(  8 -  8) =    -16.12023  eV     1   --> A_1  D_1  S_1  
     e(  9 -  9) =    -16.02502  eV     1   --> B_2  D_4  S_4  
     e( 10 - 10) =    -16.01026  eV     1   --> B_1  D_3  S_3  
     e( 11 - 11) =     -1.30518  eV     1   --> A_1  D_1  S_1  
     e( 12 - 12) =      0.62782  eV     1   --> B_1  D_3  S_3  
     e( 13 - 13) =      4.02309  eV     1   --> A_1  D_1  S_1  
     e( 14 - 14) =      6.15457  eV     1   --> A_2  D_2  S_2  

 **************************************************************************

 **************************************************************************

                    xk=(  -0.65217,   0.65217,   0.00000  )

     Band symmetry, C_2v (mm2)  point group:

     e(  1 -  1) =    -16.37881  eV     1   --> A_1  D_1  S_1  
     e(  2 -  2) =    -16.36248  eV     1   --> A_2  D_2  S_2  
     e(  3 -  3) =    -16.27337  eV     1   --> B_1  D_3  S_3  
     e(  4 -  4) =    -16.20784  eV     1   --> B_1  D_3  S_3  
     e(  5 -  5) =    -16.19882  eV     1   --> A_2  D_2  S_2  
     e(  6 -  6) =    -16.17799  eV     1   --> A_1  D_1  S_1  
     e(  7 -  7) =    -16.16292  eV     1   --> B_2  D_4  S_4  
     e(  8 -  8) =    -16.12017  eV     1   --> A_1  D_1  S_1  
     e(  9 -  9) =    -16.02512  eV     1   --> B_2  D_4  S_4  
     e( 10 - 10) =    -16.01080  eV     1   --> B_1  D_3  S_3  
     e( 11 - 11) =     -1.40355  eV     1   --> A_1  D_1  S_1  
     e( 12 - 12) =      0.73250  eV     1   --> B_1  D_3  S_3  
     e( 13 - 13) =      4.03450  eV     1   --> A_1  D_1  S_1  
     e( 14 - 14) =      6.22537  eV     1   --> A_2  D_2  S_2  

 **************************************************************************

 **************************************************************************

                    xk=(  -0.63587,   0.63587,   0.00000  )

     Band symmetry, C_2v (mm2)  point group:

     e(  1 -  1) =    -16.37827  eV     1   --> A_1  D_1  S_1  
     e(  2 -  2) =    -16.36244  eV     1   --> A_2  D_2  S_2  
     e(  3 -  3) =    -16.27363  eV     1   --> B_1  D_3  S_3  
     e(  4 -  4) =    -16.21309  eV     1   --> B_1  D_3  S_3  
     e(  5 -  5) =    -16.20081  eV     1   --> A_2  D_2  S_2  
     e(  6 -  6) =    -16.17197  eV     1   --> A_1  D_1  S_1  
     e(  7 -  7) =    -16.16155  eV     1   --> B_2  D_4  S_4  
     e(  8 -  8) =    -16.12007  eV     1   --> A_1  D_1  S_1  
     e(  9 -  9) =    -16.02525  eV     1   --> B_2  D_4  S_4  
     e( 10 - 10) =    -16.01155  eV     1   --> B_1  D_3  S_3  
     e( 11 - 11) =     -1.50536  eV     1   --> A_1  D_1  S_1  
     e( 12 - 12) =      0.84218  eV     1   --> B_1  D_3  S_3  
     e( 13 - 13) =      4.05690  eV     1   --> A_1  D_1  S_1  
     e( 14 - 14) =      6.29845  eV     1   --> A_2  D_2  S_2  

 **************************************************************************

 **************************************************************************

                    xk=(  -0.61957,   0.61957,   0.00000  )

     Band symmetry, C_2v (mm2)  point group:

     e(  1 -  1) =    -16.37756  eV     1   --> A_1  D_1  S_1  
     e(  2 -  2) =    -16.36237  eV     1   --> A_2  D_2  S_2  
     e(  3 -  3) =    -16.27402  eV     1   --> B_1  D_3  S_3  
     e(  4 -  4) =    -16.21817  eV     1   --> B_1  D_3  S_3  
     e(  5 -  5) =    -16.20286  eV     1   --> A_2  D_2  S_2  
     e(  6 -  6) =    -16.16604  eV     1   --> A_1  D_1  S_1  
     e(  7 -  7) =    -16.16012  eV     1   --> B_2  D_4  S_4  
     e(  8 -  8) =    -16.11993  eV     1   --> A_1  D_1  S_1  
     e(  9 -  9) =    -16.02542  eV     1   --> B_2  D_4  S_4  
     e( 10 - 10) =    -16.01248  eV     1   --> B_1  D_3  S_3  
     e( 11 - 11) =     -1.61006  eV     1   --> A_1  D_1  S_1  
     e( 12 - 12) =      0.95684  eV     1   --> B_1  D_3  S_3  
     e( 13 - 13) =      4.08988  eV     1   --> A_1  D_1  S_1  
     e( 14 - 14) =      6.37363  eV     1   --> A_2  D_2  S_2  

 **************************************************************************

 **************************************************************************

                    xk=(  -0.60326,   0.60326,   0.00000  )

     Band symmetry, C_2v (mm2)  point group:

     e(  1 -  1) =    -16.37669  eV     1   --> A_1  D_1  S_1  
     e(  2 -  2) =    -16.36226  eV     1   --> A_2  D_2  S_2  
     e(  3 -  3) =    -16.27456  eV     1   --> B_1  D_3  S_3  
     e(  4 -  4) =    -16.22307  eV     1   --> B_1  D_3  S_3  
     e(  5 -  5) =    -16.20497  eV     1   --> A_2  D_2  S_2  
     e(  6 -  6) =    -16.16020  eV     1   --> A_1  D_1  S_1  
     e(  7 -  7) =    -16.15863  eV     1   --> B_2  D_4  S_4  
     e(  8 -  8) =    -16.11972  eV     1   --> A_1  D_1  S_1  
     e(  9 -  9) =    -16.02563  eV     1   --> B_2  D_4  S_4  
     e( 10 - 10) =    -16.01360  eV     1   --> B_1  D_3  S_3  
     e( 11 - 11) =     -1.71707  eV     1   --> A_1  D_1  S_1  
     e( 12 - 12) =      1.07647  eV     1   --> B_1  D_3  S_3  
     e( 13 - 13) =      4.13298  eV     1   --> A_1  D_1  S_1  
     e( 14 - 14) =      6.45072  eV     1   --> A_2  D_2  S_2  

 **************************************************************************

 **************************************************************************

                    xk=(  -0.58696,   0.58696,   0.00000  )

     Band symmetry, C_2v (mm2)  point group:

     e(  1 -  1) =    -16.37566  eV     1   --> A_1  D_1  S_1  
     e(  2 -  2) =    -16.36212  eV     1   --> A_2  D_2  S_2  
     e(  3 -  3) =    -16.27529  eV     1   --> B_1  D_3  S_3  
     e(  4 -  4) =    -16.22773  eV     1   --> B_1  D_3  S_3  
     e(  5 -  5) =    -16.20715  eV     1   --> A_2  D_2  S_2  
     e(  6 -  6) =    -16.15707  eV     1   --> B_2  D_4  S_4  
     e(  7 -  7) =    -16.15449  eV     1   --> A_1  D_1  S_1  
     e(  8 -  8) =    -16.11944  eV     1   --> A_1  D_1  S_1  
     e(  9 -  9) =    -16.02587  eV     1   --> B_2  D_4  S_4  
     e( 10 - 10) =    -16.01490  eV     1   --> B_1  D_3  S_3  
     e( 11 - 11) =     -1.82582  eV     1   --> A_1  D_1  S_1  
     e( 12 - 12) =      1.20107  eV     1   --> B_1  D_3  S_3  
     e( 13 - 13) =      4.18575  eV     1   --> A_1  D_1  S_1  
     e( 14 - 14) =      6.52953  eV     1   --> A_2  D_2  S_2  

 **************************************************************************

 **************************************************************************

                    xk=(  -0.57065,   0.57065,   0.00000  )

     Band symmetry, C_2v (mm2)  point group:

     e(  1 -  1) =    -16.37449  eV     1   --> A_1  D_1  S_1  
     e(  2 -  2) =    -16.36194  eV     1   --> A_2  D_2  S_2  
     e(  3 -  3) =    -16.27623  eV     1   --> B_1  D_3  S_3  
     e(  4 -  4) =    -16.23213  eV     1   --> B_1  D_3  S_3  
     e(  5 -  5) =    -16.20939  eV     1   --> A_2  D_2  S_2  
     e(  6 -  6) =    -16.15544  eV     1   --> B_2  D_4  S_4  
     e(  7 -  7) =    -16.14894  eV     1   --> A_1  D_1  S_1  
     e(  8 -  8) =    -16.11907  eV     1   --> A_1  D_1  S_1  
     e(  9 -  9) =    -16.02615  eV     1   --> B_2  D_4  S_4  
     e( 10 - 10) =    -16.01638  eV     1   --> B_1  D_3  S_3  
     e( 11 - 11) =     -1.93578  eV     1   --> A_1  D_1  S_1  
     e( 12 - 12) =      1.33061  eV     1   --> B_1  D_3  S_3  
     e( 13 - 13) =      4.24771  eV     1   --> A_1  D_1  S_1  
     e( 14 - 14) =      6.60982  eV     1   --> A_2  D_2  S_2  

 **************************************************************************

 **************************************************************************

                    xk=(  -0.55435,   0.55435,  -0.00000  )

     Band symmetry, C_2v (mm2)  point group:

     e(  1 -  1) =    -16.37318  eV     1   --> A_1  D_1  S_1  
     e(  2 -  2) =    -16.36172  eV     1   --> A_2  D_2  S_2  
     e(  3 -  3) =    -16.27742  eV     1   --> B_1  D_3  S_3  
     e(  4 -  4) =    -16.23622  eV     1   --> B_1  D_3  S_3  
     e(  5 -  5) =    -16.21168  eV     1   --> A_2  D_2  S_2  
     e(  6 -  6) =    -16.15376  eV     1   --> B_2  D_4  S_4  
     e(  7 -  7) =    -16.14357  eV     1   --> A_1  D_1  S_1  
     e(  8 -  8) =    -16.11858  eV     1   --> A_1  D_1  S_1  
     e(  9 -  9) =    -16.02648  eV     1   --> B_2  D_4  S_4  
     e( 10 - 10) =    -16.01802  eV     1   --> B_1  D_3  S_3  
     e( 11 - 11) =     -2.04642  eV     1   --> A_1  D_1  S_1  
     e( 12 - 12) =      1.46509  eV     1   --> B_1  D_3  S_3  
     e( 13 - 13) =      4.31841  eV     1   --> A_1  D_1  S_1  
     e( 14 - 14) =      6.69137  eV     1   --> A_2  D_2  S_2  

 **************************************************************************

 **************************************************************************

                    xk=(  -0.53804,   0.53804,  -0.00000  )

     Band symmetry, C_2v (mm2)  point group:

     e(  1 -  1) =    -16.37175  eV     1   --> A_1  D_1  S_1  
     e(  2 -  2) =    -16.36145  eV     1   --> A_2  D_2  S_2  
     e(  3 -  3) =    -16.27889  eV     1   --> B_1  D_3  S_3  
     e(  4 -  4) =    -16.23996  eV     1   --> B_1  D_3  S_3  
     e(  5 -  5) =    -16.21403  eV     1   --> A_2  D_2  S_2  
     e(  6 -  6) =    -16.15200  eV     1   --> B_2  D_4  S_4  
     e(  7 -  7) =    -16.13846  eV     1   --> A_1  D_1  S_1  
     e(  8 -  8) =    -16.11793  eV     1   --> A_1  D_1  S_1  
     e(  9 -  9) =    -16.02686  eV     1   --> B_2  D_4  S_4  
     e( 10 - 10) =    -16.01981  eV     1   --> B_1  D_3  S_3  
     e( 11 - 11) =     -2.15727  eV     1   --> A_1  D_1  S_1  
     e( 12 - 12) =      1.60450  eV     1   --> B_1  D_3  S_3  
     e( 13 - 13) =      4.39738  eV     1   --> A_1  D_1  S_1  
     e( 14 - 14) =      6.77394  eV     1   --> A_2  D_2  S_2  

 **************************************************************************

 **************************************************************************

                    xk=(  -0.52174,   0.52174,   0.00000  )

     Band symmetry, C_2v (mm2)  point group:

     e(  1 -  1) =    -16.37021  eV     1   --> A_1  D_1  S_1  
     e(  2 -  2) =    -16.36113  eV     1   --> A_2  D_2  S_2  
     e(  3 -  3) =    -16.28064  eV     1   --> B_1  D_3  S_3  
     e(  4 -  4) =    -16.24334  eV     1   --> B_1  D_3  S_3  
     e(  5 -  5) =    -16.21643  eV     1   --> A_2  D_2  S_2  
     e(  6 -  6) =    -16.15019  eV     1   --> B_2  D_4  S_4  
     e(  7 -  7) =    -16.13367  eV     1   --> A_1  D_1  S_1  
     e(  8 -  8) =    -16.11703  eV     1   --> A_1  D_1  S_1  
     e(  9 -  9) =    -16.02728  eV     1   --> B_2  D_4  S_4  
     e( 10 - 10) =    -16.02175  eV     1   --> B_1  D_3  S_3  
     e( 11 - 11) =     -2.26786  eV     1   --> A_1  D_1  S_1  
     e( 12 - 12) =      1.74880  eV     1   --> B_1  D_3  S_3  
     e( 13 - 13) =      4.48420  eV     1   --> A_1  D_1  S_1  
     e( 14 - 14) =      6.85726  eV     1   --> A_2  D_2  S_2  

 **************************************************************************

 **************************************************************************

                    xk=(  -0.50543,   0.50543,   0.00000  )

     Band symmetry, C_2v (mm2)  point group:

     e(  1 -  1) =    -16.36856  eV     1   --> A_1  D_1  S_1  
     e(  2 -  2) =    -16.36076  eV     1   --> A_2  D_2  S_2  
     e(  3 -  3) =    -16.28268  eV     1   --> B_1  D_3  S_3  
     e(  4 -  4) =    -16.24635  eV     1   --> B_1  D_3  S_3  
     e(  5 -  5) =    -16.21888  eV     1   --> A_2  D_2  S_2  
     e(  6 -  6) =    -16.14832  eV     1   --> B_2  D_4  S_4  
     e(  7 -  7) =    -16.12937  eV     1   --> A_1  D_1  S_1  
     e(  8 -  8) =    -16.11575  eV     1   --> A_1  D_1  S_1  
     e(  9 -  9) =    -16.02775  eV     1   --> B_2  D_4  S_4  
     e( 10 - 10) =    -16.02381  eV     1   --> B_1  D_3  S_3  
     e( 11 - 11) =     -2.37778  eV     1   --> A_1  D_1  S_1  
     e( 12 - 12) =      1.89799  eV     1   --> B_1  D_3  S_3  
     e( 13 - 13) =      4.57845  eV     1   --> A_1  D_1  S_1  
     e( 14 - 14) =      6.94107  eV     1   --> A_2  D_2  S_2  

 **************************************************************************

 **************************************************************************

                    xk=(  -0.48913,   0.48913,   0.00000  )

     Band symmetry, C_2v (mm2)  point group:

     e(  1 -  1) =    -16.36683  eV     1   --> A_1  D_1  S_1  
     e(  2 -  2) =    -16.36033  eV     1   --> A_2  D_2  S_2  
     e(  3 -  3) =    -16.28499  eV     1   --> B_1  D_3  S_3  
     e(  4 -  4) =    -16.24901  eV     1   --> B_1  D_3  S_3  
     e(  5 -  5) =    -16.22138  eV     1   --> A_2  D_2  S_2  
     e(  6 -  6) =    -16.14638  eV     1   --> B_2  D_4  S_4  
     e(  7 -  7) =    -16.12573  eV     1   --> A_1  D_1  S_1  
     e(  8 -  8) =    -16.11389  eV     1   --> A_1  D_1  S_1  
     e(  9 -  9) =    -16.02828  eV     1   --> B_2  D_4  S_4  
     e( 10 - 10) =    -16.02599  eV     1   --> B_1  D_3  S_3  
     e( 11 - 11) =     -2.48664  eV     1   --> A_1  D_1  S_1  
     e( 12 - 12) =      2.05204  eV     1   --> B_1  D_3  S_3  
     e( 13 - 13) =      4.67972  eV     1   --> A_1  D_1  S_1  
     e( 14 - 14) =      7.02509  eV     1   --> A_2  D_2  S_2  

 **************************************************************************

 **************************************************************************

                    xk=(  -0.47283,   0.47283,   0.00000  )

     Band symmetry, C_2v (mm2)  point group:

     e(  1 -  1) =    -16.36502  eV     1   --> A_1  D_1  S_1  
     e(  2 -  2) =    -16.35985  eV     1   --> A_2  D_2  S_2  
     e(  3 -  3) =    -16.28753  eV     1   --> B_1  D_3  S_3  
     e(  4 -  4) =    -16.25134  eV     1   --> B_1  D_3  S_3  
     e(  5 -  5) =    -16.22392  eV     1   --> A_2  D_2  S_2  
     e(  6 -  6) =    -16.14440  eV     1   --> B_2  D_4  S_4  
     e(  7 -  7) =    -16.12293  eV     1   --> A_1  D_1  S_1  
     e(  8 -  8) =    -16.11132  eV     1   --> A_1  D_1  S_1  
     e(  9 -  9) =    -16.02886  eV     1   --> B_2  D_4  S_4  
     e( 10 - 10) =    -16.02828  eV     1   --> B_1  D_3  S_3  
     e( 11 - 11) =     -2.59411  eV     1   --> A_1  D_1  S_1  
     e( 12 - 12) =      2.21093  eV     1   --> B_1  D_3  S_3  
     e( 13 - 13) =      4.78762  eV     1   --> A_1  D_1  S_1  
     e( 14 - 14) =      7.10902  eV     1   --> A_2  D_2  S_2  

 **************************************************************************

 **************************************************************************

                    xk=(  -0.45652,   0.45652,   0.00000  )

     Band symmetry, C_2v (mm2)  point group:

     e(  1 -  1) =    -16.36315  eV     1   --> A_1  D_1  S_1  
     e(  2 -  2) =    -16.35930  eV     1   --> A_2  D_2  S_2  
     e(  3 -  3) =    -16.29025  eV     1   --> B_1  D_3  S_3  
     e(  4 -  4) =    -16.25340  eV     1   --> B_1  D_3  S_3  
     e(  5 -  5) =    -16.22650  eV     1   --> A_2  D_2  S_2  
     e(  6 -  6) =    -16.14235  eV     1   --> B_2  D_4  S_4  
     e(  7 -  7) =    -16.12086  eV     1   --> A_1  D_1  S_1  
     e(  8 -  8) =    -16.10812  eV     1   --> A_1  D_1  S_1  
     e(  9 -  9) =    -16.03066  eV     1   --> B_1  D_3  S_3  
     e( 10 - 10) =    -16.02950  eV     1   --> B_2  D_4  S_4  
     e( 11 - 11) =     -2.69985  eV     1   --> A_1  D_1  S_1  
     e( 12 - 12) =      2.37462  eV     1   --> B_1  D_3  S_3  
     e( 13 - 13) =      4.90179  eV     1   --> A_1  D_1  S_1  
     e( 14 - 14) =      7.19256  eV     1   --> A_2  D_2  S_2  

 **************************************************************************

 **************************************************************************

                    xk=(  -0.44022,   0.44022,   0.00000  )

     Band symmetry, C_2v (mm2)  point group:

     e(  1 -  1) =    -16.36124  eV     1   --> A_1  D_1  S_1  
     e(  2 -  2) =    -16.35870  eV     1   --> A_2  D_2  S_2  
     e(  3 -  3) =    -16.29307  eV     1   --> B_1  D_3  S_3  
     e(  4 -  4) =    -16.25524  eV     1   --> B_1  D_3  S_3  
     e(  5 -  5) =    -16.22912  eV     1   --> A_2  D_2  S_2  
     e(  6 -  6) =    -16.14025  eV     1   --> B_2  D_4  S_4  
     e(  7 -  7) =    -16.11928  eV     1   --> A_1  D_1  S_1  
     e(  8 -  8) =    -16.10457  eV     1   --> A_1  D_1  S_1  
     e(  9 -  9) =    -16.03312  eV     1   --> B_1  D_3  S_3  
     e( 10 - 10) =    -16.03020  eV     1   --> B_2  D_4  S_4  
     e( 11 - 11) =     -2.80359  eV     1   --> A_1  D_1  S_1  
     e( 12 - 12) =      2.54310  eV     1   --> B_1  D_3  S_3  
     e( 13 - 13) =      5.02186  eV     1   --> A_1  D_1  S_1  
     e( 14 - 14) =      7.27540  eV     1   --> A_2  D_2  S_2  

 **************************************************************************

 **************************************************************************

                    xk=(  -0.42391,   0.42391,  -0.00000  )

     Band symmetry, C_2v (mm2)  point group:

     e(  1 -  1) =    -16.35929  eV     1   --> A_1  D_1  S_1  
     e(  2 -  2) =    -16.35803  eV     1   --> A_2  D_2  S_2  
     e(  3 -  3) =    -16.29596  eV     1   --> B_1  D_3  S_3  
     e(  4 -  4) =    -16.25691  eV     1   --> B_1  D_3  S_3  
     e(  5 -  5) =    -16.23178  eV     1   --> A_2  D_2  S_2  
     e(  6 -  6) =    -16.13811  eV     1   --> B_2  D_4  S_4  
     e(  7 -  7) =    -16.11793  eV     1   --> A_1  D_1  S_1  
     e(  8 -  8) =    -16.10089  eV     1   --> A_1  D_1  S_1  
     e(  9 -  9) =    -16.03564  eV     1   --> B_1  D_3  S_3  
     e( 10 - 10) =    -16.03095  eV     1   --> B_2  D_4  S_4  
     e( 11 - 11) =     -2.90505  eV     1   --> A_1  D_1  S_1  
     e( 12 - 12) =      2.71632  eV     1   --> B_1  D_3  S_3  
     e( 13 - 13) =      5.14747  eV     1   --> A_1  D_1  S_1  
     e( 14 - 14) =      7.35724  eV     1   --> A_2  D_2  S_2  

 **************************************************************************

 **************************************************************************

                    xk=(  -0.40761,   0.40761,  -0.00000  )

     Band symmetry, C_2v (mm2)  point group:

     e(  1 -  2) =    -16.35731  eV     2   --> A_1  D_1  S_1  
     e(  1 -  2) =    -16.35731  eV     2   --> A_2  D_2  S_2  
     e(  3 -  3) =    -16.29885  eV     1   --> B_1  D_3  S_3  
     e(  4 -  4) =    -16.25847  eV     1   --> B_1  D_3  S_3  
     e(  5 -  5) =    -16.23446  eV     1   --> A_2  D_2  S_2  
     e(  6 -  6) =    -16.13591  eV     1   --> B_2  D_4  S_4  
     e(  7 -  7) =    -16.11669  eV     1   --> A_1  D_1  S_1  
     e(  8 -  8) =    -16.09724  eV     1   --> A_1  D_1  S_1  
     e(  9 -  9) =    -16.03820  eV     1   --> B_1  D_3  S_3  
     e( 10 - 10) =    -16.03177  eV     1   --> B_2  D_4  S_4  
     e( 11 - 11) =     -3.00402  eV     1   --> A_1  D_1  S_1  
     e( 12 - 12) =      2.89425  eV     1   --> B_1  D_3  S_3  
     e( 13 - 13) =      5.27827  eV     1   --> A_1  D_1  S_1  
     e( 14 - 14) =      7.43776  eV     1   --> A_2  D_2  S_2  

 **************************************************************************

 **************************************************************************

                    xk=(  -0.39130,   0.39130,   0.00000  )

     Band symmetry, C_2v (mm2)  point group:

     e(  1 -  1) =    -16.35649  eV     1   --> A_2  D_2  S_2  
     e(  2 -  2) =    -16.35533  eV     1   --> A_1  D_1  S_1  
     e(  3 -  3) =    -16.30170  eV     1   --> B_1  D_3  S_3  
     e(  4 -  4) =    -16.25995  eV     1   --> B_1  D_3  S_3  
     e(  5 -  5) =    -16.23718  eV     1   --> A_2  D_2  S_2  
     e(  6 -  6) =    -16.13367  eV     1   --> B_2  D_4  S_4  
     e(  7 -  7) =    -16.11547  eV     1   --> A_1  D_1  S_1  
     e(  8 -  8) =    -16.09371  eV     1   --> A_1  D_1  S_1  
     e(  9 -  9) =    -16.04080  eV     1   --> B_1  D_3  S_3  
     e( 10 - 10) =    -16.03265  eV     1   --> B_2  D_4  S_4  
     e( 11 - 11) =     -3.10027  eV     1   --> A_1  D_1  S_1  
     e( 12 - 12) =      3.07684  eV     1   --> B_1  D_3  S_3  
     e( 13 - 13) =      5.41391  eV     1   --> A_1  D_1  S_1  
     e( 14 - 14) =      7.51666  eV     1   --> A_2  D_2  S_2  

 **************************************************************************

 **************************************************************************

                    xk=(  -0.37500,   0.37500,   0.00000  )

     Band symmetry, C_2v (mm2)  point group:

     e(  1 -  1) =    -16.35562  eV     1   --> A_2  D_2  S_2  
     e(  2 -  2) =    -16.35335  eV     1   --> A_1  D_1  S_1  
     e(  3 -  3) =    -16.30447  eV     1   --> B_1  D_3  S_3  
     e(  4 -  4) =    -16.26139  eV     1   --> B_1  D_3  S_3  
     e(  5 -  5) =    -16.23992  eV     1   --> A_2  D_2  S_2  
     e(  6 -  6) =    -16.13139  eV     1   --> B_2  D_4  S_4  
     e(  7 -  7) =    -16.11423  eV     1   --> A_1  D_1  S_1  
     e(  8 -  8) =    -16.09033  eV     1   --> A_1  D_1  S_1  
     e(  9 -  9) =    -16.04340  eV     1   --> B_1  D_3  S_3  
     e( 10 - 10) =    -16.03359  eV     1   --> B_2  D_4  S_4  
     e( 11 - 11) =     -3.19362  eV     1   --> A_1  D_1  S_1  
     e( 12 - 12) =      3.26405  eV     1   --> B_1  D_3  S_3  
     e( 13 - 13) =      5.55404  eV     1   --> A_1  D_1  S_1  
     e( 14 - 14) =      7.59362  eV     1   --> A_2  D_2  S_2  

 **************************************************************************

 **************************************************************************

                    xk=(  -0.35870,   0.35870,   0.00000  )

     Band symmetry, C_2v (mm2)  point group:

     e(  1 -  1) =    -16.35468  eV     1   --> A_2  D_2  S_2  
     e(  2 -  2) =    -16.35139  eV     1   --> A_1  D_1  S_1  
     e(  3 -  3) =    -16.30714  eV     1   --> B_1  D_3  S_3  
     e(  4 -  4) =    -16.26281  eV     1   --> B_1  D_3  S_3  
     e(  5 -  5) =    -16.24268  eV     1   --> A_2  D_2  S_2  
     e(  6 -  6) =    -16.12907  eV     1   --> B_2  D_4  S_4  
     e(  7 -  7) =    -16.11295  eV     1   --> A_1  D_1  S_1  
     e(  8 -  8) =    -16.08713  eV     1   --> A_1  D_1  S_1  
     e(  9 -  9) =    -16.04601  eV     1   --> B_1  D_3  S_3  
     e( 10 - 10) =    -16.03460  eV     1   --> B_2  D_4  S_4  
     e( 11 - 11) =     -3.28389  eV     1   --> A_1  D_1  S_1  
     e( 12 - 12) =      3.45582  eV     1   --> B_1  D_3  S_3  
     e( 13 - 13) =      5.69828  eV     1   --> A_1  D_1  S_1  
     e( 14 - 14) =      7.66836  eV     1   --> A_2  D_2  S_2  

 **************************************************************************

 **************************************************************************

                    xk=(  -0.34239,   0.34239,   0.00000  )

     Band symmetry, C_2v (mm2)  point group:

     e(  1 -  1) =    -16.35367  eV     1   --> A_2  D_2  S_2  
     e(  2 -  2) =    -16.34945  eV     1   --> A_1  D_1  S_1  
     e(  3 -  3) =    -16.30967  eV     1   --> B_1  D_3  S_3  
[...]
     e(  9 - 10) =    -16.03990  eV     2   --> E    L_3       
     e( 11 - 11) =     -2.39923  eV     1   --> A_1  L_1       
     e( 12 - 12) =      1.17989  eV     1   --> A_1  L_1       
     e( 13 - 14) =      7.10857  eV     2   --> E    L_3       

 **************************************************************************

 **************************************************************************

                    xk=(  -0.44595,   0.44595,   0.44595  )

     Band symmetry, C_3v (3m)   point group:

     e(  1 -  2) =    -16.35152  eV     2   --> E    L_3       
     e(  3 -  3) =    -16.31021  eV     1   --> A_1  L_1       
     e(  4 -  5) =    -16.25021  eV     2   --> E    L_3       
     e(  6 -  7) =    -16.11480  eV     2   --> E    L_3       
     e(  8 -  8) =    -16.10023  eV     1   --> A_1  L_1       
     e(  9 - 10) =    -16.03975  eV     2   --> E    L_3       
     e( 11 - 11) =     -2.33517  eV     1   --> A_1  L_1       
     e( 12 - 12) =      1.07480  eV     1   --> A_1  L_1       
     e( 13 - 14) =      7.09431  eV     2   --> E    L_3       

 **************************************************************************

 **************************************************************************

                    xk=(  -0.45946,   0.45946,   0.45946  )

     Band symmetry, C_3v (3m)   point group:

     e(  1 -  2) =    -16.35161  eV     2   --> E    L_3       
     e(  3 -  3) =    -16.30999  eV     1   --> A_1  L_1       
     e(  4 -  5) =    -16.24999  eV     2   --> E    L_3       
     e(  6 -  7) =    -16.11492  eV     2   --> E    L_3       
     e(  8 -  8) =    -16.10049  eV     1   --> A_1  L_1       
     e(  9 - 10) =    -16.03963  eV     2   --> E    L_3       
     e( 11 - 11) =     -2.28228  eV     1   --> A_1  L_1       
     e( 12 - 12) =      0.98996  eV     1   --> A_1  L_1       
     e( 13 - 14) =      7.08320  eV     2   --> E    L_3       

 **************************************************************************

 **************************************************************************

                    xk=(  -0.47297,   0.47297,   0.47297  )

     Band symmetry, C_3v (3m)   point group:

     e(  1 -  2) =    -16.35167  eV     2   --> E    L_3       
     e(  3 -  3) =    -16.30983  eV     1   --> A_1  L_1       
     e(  4 -  5) =    -16.24984  eV     2   --> E    L_3       
     e(  6 -  7) =    -16.11500  eV     2   --> E    L_3       
     e(  8 -  8) =    -16.10069  eV     1   --> A_1  L_1       
     e(  9 - 10) =    -16.03955  eV     2   --> E    L_3       
     e( 11 - 11) =     -2.24263  eV     1   --> A_1  L_1       
     e( 12 - 12) =      0.92749  eV     1   --> A_1  L_1       
     e( 13 - 14) =      7.07526  eV     2   --> E    L_3       

 **************************************************************************

 **************************************************************************

                    xk=(  -0.48649,   0.48649,   0.48649  )

     Band symmetry, C_3v (3m)   point group:

     e(  1 -  2) =    -16.35171  eV     2   --> E    L_3       
     e(  3 -  3) =    -16.30973  eV     1   --> A_1  L_1       
     e(  4 -  5) =    -16.24975  eV     2   --> E    L_3       
     e(  6 -  7) =    -16.11504  eV     2   --> E    L_3       
     e(  8 -  8) =    -16.10080  eV     1   --> A_1  L_1       
     e(  9 - 10) =    -16.03950  eV     2   --> E    L_3       
     e( 11 - 11) =     -2.21803  eV     1   --> A_1  L_1       
     e( 12 - 12) =      0.88918  eV     1   --> A_1  L_1       
     e( 13 - 14) =      7.07049  eV     2   --> E    L_3       

 **************************************************************************

 **************************************************************************

                    xk=(  -0.50000,   0.50000,   0.50000  )

     zone border point and non-symmorphic group 
     symmetry decomposition not available

 **************************************************************************

 **************************************************************************

                    xk=(  -0.51667,   0.50000,   0.48333  )

     zone border point and non-symmorphic group 
     symmetry decomposition not available

 **************************************************************************

 **************************************************************************

                    xk=(  -0.53333,   0.50000,   0.46667  )

     zone border point and non-symmorphic group 
     symmetry decomposition not available

 **************************************************************************

 **************************************************************************

                    xk=(  -0.55000,   0.50000,   0.45000  )

     zone border point and non-symmorphic group 
     symmetry decomposition not available

 **************************************************************************

 **************************************************************************

                    xk=(  -0.56667,   0.50000,   0.43333  )

     zone border point and non-symmorphic group 
     symmetry decomposition not available

 **************************************************************************

 **************************************************************************

                    xk=(  -0.58333,   0.50000,   0.41667  )

     zone border point and non-symmorphic group 
     symmetry decomposition not available

 **************************************************************************

 **************************************************************************

                    xk=(  -0.60000,   0.50000,   0.40000  )

     zone border point and non-symmorphic group 
     symmetry decomposition not available

 **************************************************************************

 **************************************************************************

                    xk=(  -0.61667,   0.50000,   0.38333  )

     zone border point and non-symmorphic group 
     symmetry decomposition not available

 **************************************************************************

 **************************************************************************

                    xk=(  -0.63333,   0.50000,   0.36667  )

     zone border point and non-symmorphic group 
     symmetry decomposition not available

 **************************************************************************

 **************************************************************************

                    xk=(  -0.65000,   0.50000,   0.35000  )

     zone border point and non-symmorphic group 
     symmetry decomposition not available

 **************************************************************************

 **************************************************************************

                    xk=(  -0.66667,   0.50000,   0.33333  )

     zone border point and non-symmorphic group 
     symmetry decomposition not available

 **************************************************************************

 **************************************************************************

                    xk=(  -0.68333,   0.50000,   0.31667  )

     zone border point and non-symmorphic group 
     symmetry decomposition not available

 **************************************************************************

 **************************************************************************

                    xk=(  -0.70000,   0.50000,   0.30000  )

     zone border point and non-symmorphic group 
     symmetry decomposition not available

 **************************************************************************

 **************************************************************************

                    xk=(  -0.71667,   0.50000,   0.28333  )

     zone border point and non-symmorphic group 
     symmetry decomposition not available

 **************************************************************************

 **************************************************************************

                    xk=(  -0.73333,   0.50000,   0.26667  )

     zone border point and non-symmorphic group 
     symmetry decomposition not available

 **************************************************************************

 **************************************************************************

                    xk=(  -0.75000,   0.50000,   0.25000  )

     zone border point and non-symmorphic group 
     symmetry decomposition not available

 **************************************************************************

 **************************************************************************

                    xk=(  -0.76667,   0.50000,   0.23333  )

     zone border point and non-symmorphic group 
     symmetry decomposition not available

 **************************************************************************

 **************************************************************************

                    xk=(  -0.78333,   0.50000,   0.21667  )

     zone border point and non-symmorphic group 
     symmetry decomposition not available

 **************************************************************************

 **************************************************************************

                    xk=(  -0.80000,   0.50000,   0.20000  )

     zone border point and non-symmorphic group 
     symmetry decomposition not available

 **************************************************************************

 **************************************************************************

                    xk=(  -0.81667,   0.50000,   0.18333  )

     zone border point and non-symmorphic group 
     symmetry decomposition not available

 **************************************************************************

 **************************************************************************

                    xk=(  -0.83333,   0.50000,   0.16667  )

     zone border point and non-symmorphic group 
     symmetry decomposition not available

 **************************************************************************

 **************************************************************************

                    xk=(  -0.85000,   0.50000,   0.15000  )

     zone border point and non-symmorphic group 
     symmetry decomposition not available

 **************************************************************************

 **************************************************************************

                    xk=(  -0.86667,   0.50000,   0.13333  )

     zone border point and non-symmorphic group 
     symmetry decomposition not available

 **************************************************************************

 **************************************************************************

                    xk=(  -0.88333,   0.50000,   0.11667  )

     zone border point and non-symmorphic group 
     symmetry decomposition not available

 **************************************************************************

 **************************************************************************

                    xk=(  -0.90000,   0.50000,   0.10000  )

     zone border point and non-symmorphic group 
     symmetry decomposition not available

 **************************************************************************

 **************************************************************************

                    xk=(  -0.91667,   0.50000,   0.08333  )

     zone border point and non-symmorphic group 
     symmetry decomposition not available

 **************************************************************************

 **************************************************************************

                    xk=(  -0.93333,   0.50000,   0.06667  )

     zone border point and non-symmorphic group 
     symmetry decomposition not available

 **************************************************************************

 **************************************************************************

                    xk=(  -0.95000,   0.50000,   0.05000  )

     zone border point and non-symmorphic group 
     symmetry decomposition not available

 **************************************************************************

 **************************************************************************

                    xk=(  -0.96667,   0.50000,   0.03333  )

     zone border point and non-symmorphic group 
     symmetry decomposition not available

 **************************************************************************

 **************************************************************************

                    xk=(  -0.98333,   0.50000,   0.01667  )

     zone border point and non-symmorphic group 
     symmetry decomposition not available

 **************************************************************************

 **************************************************************************

                    xk=(  -1.00000,   0.50000,   0.00000  )

     zone border point and non-symmorphic group 
     symmetry decomposition not available

 **************************************************************************

 **************************************************************************

                    xk=(  -1.00000,   0.47619,   0.00000  )

     zone border point and non-symmorphic group 
     symmetry decomposition not available

 **************************************************************************

 **************************************************************************

                    xk=(  -1.00000,   0.45238,   0.00000  )

     zone border point and non-symmorphic group 
     symmetry decomposition not available

 **************************************************************************

 **************************************************************************

                    xk=(  -1.00000,   0.42857,   0.00000  )

     zone border point and non-symmorphic group 
     symmetry decomposition not available

 **************************************************************************

 **************************************************************************

                    xk=(  -1.00000,   0.40476,   0.00000  )

     zone border point and non-symmorphic group 
     symmetry decomposition not available

 **************************************************************************

 **************************************************************************

                    xk=(  -1.00000,   0.38095,   0.00000  )

     zone border point and non-symmorphic group 
     symmetry decomposition not available

 **************************************************************************

 **************************************************************************

                    xk=(  -1.00000,   0.35714,   0.00000  )

     zone border point and non-symmorphic group 
     symmetry decomposition not available

 **************************************************************************

 **************************************************************************

                    xk=(  -1.00000,   0.33333,   0.00000  )

     zone border point and non-symmorphic group 
     symmetry decomposition not available

 **************************************************************************

 **************************************************************************

                    xk=(  -1.00000,   0.30952,   0.00000  )

     zone border point and non-symmorphic group 
     symmetry decomposition not available

 **************************************************************************

 **************************************************************************

                    xk=(  -1.00000,   0.28571,   0.00000  )

     zone border point and non-symmorphic group 
     symmetry decomposition not available

 **************************************************************************

 **************************************************************************

                    xk=(  -1.00000,   0.26190,   0.00000  )

     zone border point and non-symmorphic group 
     symmetry decomposition not available

 **************************************************************************

 **************************************************************************

                    xk=(  -1.00000,   0.23810,   0.00000  )

     zone border point and non-symmorphic group 
     symmetry decomposition not available

 **************************************************************************

 **************************************************************************

                    xk=(  -1.00000,   0.21429,   0.00000  )

     zone border point and non-symmorphic group 
     symmetry decomposition not available

 **************************************************************************

 **************************************************************************

                    xk=(  -1.00000,   0.19048,   0.00000  )

     zone border point and non-symmorphic group 
     symmetry decomposition not available

 **************************************************************************

 **************************************************************************

                    xk=(  -1.00000,   0.16667,   0.00000  )

     zone border point and non-symmorphic group 
     symmetry decomposition not available

 **************************************************************************

 **************************************************************************

                    xk=(  -1.00000,   0.14286,   0.00000  )

     zone border point and non-symmorphic group 
     symmetry decomposition not available

 **************************************************************************

 **************************************************************************

                    xk=(  -1.00000,   0.11905,   0.00000  )

     zone border point and non-symmorphic group 
     symmetry decomposition not available

 **************************************************************************

 **************************************************************************

                    xk=(  -1.00000,   0.09524,   0.00000  )

     zone border point and non-symmorphic group 
     symmetry decomposition not available

 **************************************************************************

 **************************************************************************

                    xk=(  -1.00000,   0.07143,   0.00000  )

     zone border point and non-symmorphic group 
     symmetry decomposition not available

 **************************************************************************

 **************************************************************************

                    xk=(  -1.00000,   0.04762,   0.00000  )

     zone border point and non-symmorphic group 
     symmetry decomposition not available

 **************************************************************************

 **************************************************************************

                    xk=(  -1.00000,   0.02381,   0.00000  )

     zone border point and non-symmorphic group 
     symmetry decomposition not available

 **************************************************************************

 **************************************************************************

                    xk=(  -1.00000,   0.00000,   0.00000  )

     zone border point and non-symmorphic group 
     symmetry decomposition not available

 **************************************************************************

     BANDS        :     39.52s CPU     42.13s WALL


   This run was terminated on:  21:36:34  23Mar2022            

=------------------------------------------------------------------------------=
   JOB DONE.
=------------------------------------------------------------------------------=
