
     Program PWSCF v.7.0 starts on 23Mar2022 at 21:25:51 

     This program is part of the open-source Quantum ESPRESSO suite
     for quantum simulation of materials; please cite
         "P. Giannozzi et al., J. Phys.:Condens. Matter 21 395502 (2009);
         "P. Giannozzi et al., J. Phys.:Condens. Matter 29 465901 (2017);
         "P. Giannozzi et al., J. Chem. Phys. 152 154105 (2020);
          URL http://www.quantum-espresso.org", 
     in publications or presentations arising from this work. More details at
     http://www.quantum-espresso.org/quote

     Parallel version (MPI), running on     1 processors

     MPI processes distributed on     1 nodes
     0 MiB available memory on the printing compute node when the environment starts

     Reading input from Ge.nscf.in

     Current dimensions of program PWSCF are:
     Max number of different atomic species (ntypx) = 10
     Max number of k-points (npk) =  40000
     Max angular momentum in pseudopotentials (lmaxx) =  4

     Atomic positions and unit cell read from directory:
     ./temp/Germanium.save/
     Atomic positions from file used, from input discarded

     Message from routine setup:
     using ibrav=0 with symmetry is DISCOURAGED, use correct ibrav instead

     Subspace diagonalization in iterative solution of the eigenvalue problem:
     a serial algorithm will be used


     G-vector sticks info
     --------------------
     sticks:   dense  smooth     PW     G-vecs:    dense   smooth      PW
     Sum        1261    1261    361                29603    29603    4573

     Using Slab Decomposition



     bravais-lattice index     =            0
     lattice parameter (alat)  =      10.6902  a.u.
     unit-cell volume          =     305.4184 (a.u.)^3
     number of atoms/cell      =            2
     number of atomic types    =            1
     number of electrons       =        28.00
     number of Kohn-Sham states=           14
     kinetic-energy cutoff     =      80.0000  Ry
     charge density cutoff     =     320.0000  Ry
     Exchange-correlation=  SLA  PW   PBX  PBC
                           (   1   4   3   4   0   0   0)

     celldm(1)=   7.559099  celldm(2)=   0.000000  celldm(3)=   0.000000
     celldm(4)=   0.000000  celldm(5)=   0.000000  celldm(6)=   0.000000

     crystal axes: (cart. coord. in units of alat)
               a(1) = (  -0.500000   0.000000   0.500000 )  
               a(2) = (   0.000000   0.500000   0.500000 )  
               a(3) = (  -0.500000   0.500000   0.000000 )  

     reciprocal axes: (cart. coord. in units 2 pi/alat)
               b(1) = ( -1.000000 -1.000000  1.000000 )  
               b(2) = (  1.000000  1.000000  1.000000 )  
               b(3) = ( -1.000000  1.000000 -1.000000 )  


     PseudoPot. # 1 for Ge read from file:
     ./ge_pbe_v1.4.uspp.F.UPF
     MD5 check sum: 9c9eaa91e581c3f09632fb3098b2c6b2
     Pseudo is Ultrasoft + core correction, Zval = 14.0
     Generated by new atomic code, or converted to UPF format
     Using radial grid of  873 points,  6 beta functions with: 
                l(1) =   0
                l(2) =   0
                l(3) =   1
                l(4) =   1
                l(5) =   2
                l(6) =   2
     Q(r) pseudized with  8 coefficients,  rinner =    1.400   1.400   1.400
                                                       1.400   1.400

     atomic species   valence    mass     pseudopotential
        Ge            14.00    72.64000     Ge( 1.00)

     48 Sym. Ops., with inversion, found (24 have fractional translation)



   Cartesian axes

     site n.     atom                  positions (alat units)
         1           Ge  tau(   1) = (   0.0000000   0.0000000   0.0000000  )
         2           Ge  tau(   2) = (   0.2500000   0.2500000   0.2500000  )

     number of k points=   193

     Number of k-points >= 100: set verbosity='high' to print them.

     Dense  grid:    29603 G-vectors     FFT dimensions: (  48,  48,  48)

     Estimated max dynamical RAM per process >     100.55 MB

     Check: negative core charge=   -0.000001

     The potential is recalculated from file :
     ./temp/Germanium.save/charge-density

     Starting wfcs are   18 randomized atomic wfcs

     Band Structure Calculation
     Davidson diagonalization with overlap

     ethr =  3.57E-09,  avg # of iterations = 12.0

     total cpu time spent up to now is      106.4 secs

     End of band structure calculation

     Number of k-points >= 100: set verbosity='high' to print the bands.

     Writing all to output data dir ./temp/Germanium.save/

     init_run     :      0.85s CPU      0.88s WALL (       1 calls)
     electrons    :    100.58s CPU    105.32s WALL (       1 calls)

     Called by init_run:
     wfcinit      :      0.00s CPU      0.00s WALL (       1 calls)
     potinit      :      0.06s CPU      0.07s WALL (       1 calls)
     hinit0       :      0.55s CPU      0.56s WALL (       1 calls)

     Called by electrons:
     c_bands      :    100.58s CPU    105.32s WALL (       1 calls)
     v_of_rho     :      0.06s CPU      0.06s WALL (       1 calls)
     newd         :      0.08s CPU      0.10s WALL (       1 calls)

     Called by c_bands:
     init_us_2    :      0.33s CPU      0.35s WALL (     193 calls)
     init_us_2:cp :      0.33s CPU      0.35s WALL (     193 calls)
     cegterg      :     85.00s CPU     89.25s WALL (     196 calls)

     Called by *egterg:
     cdiaghg      :      0.57s CPU      0.58s WALL (    2506 calls)
     h_psi        :     85.75s CPU     87.89s WALL (    2702 calls)
     s_psi        :      0.90s CPU      1.30s WALL (    2702 calls)
     g_psi        :      0.97s CPU      0.97s WALL (    2313 calls)

     Called by h_psi:
     h_psi:calbec :      1.40s CPU      2.65s WALL (    2702 calls)
     vloc_psi     :     83.21s CPU     83.67s WALL (    2702 calls)
     add_vuspsi   :      0.93s CPU      1.34s WALL (    2702 calls)

     General routines
     calbec       :      1.40s CPU      2.64s WALL (    2702 calls)
     fft          :      0.03s CPU      0.04s WALL (      12 calls)
     fftw         :     51.28s CPU     51.57s WALL (   60152 calls)
     davcio       :      0.00s CPU      0.08s WALL (     386 calls)

     Parallel routines

     PWSCF        :   1m41.69s CPU   1m46.62s WALL


   This run was terminated on:  21:27:38  23Mar2022            

=------------------------------------------------------------------------------=
   JOB DONE.
=------------------------------------------------------------------------------=
