
     Program PWSCF v.7.0 starts on 23Mar2022 at 21:21:34 

     This program is part of the open-source Quantum ESPRESSO suite
     for quantum simulation of materials; please cite
         "P. Giannozzi et al., J. Phys.:Condens. Matter 21 395502 (2009);
         "P. Giannozzi et al., J. Phys.:Condens. Matter 29 465901 (2017);
         "P. Giannozzi et al., J. Chem. Phys. 152 154105 (2020);
          URL http://www.quantum-espresso.org", 
     in publications or presentations arising from this work. More details at
     http://www.quantum-espresso.org/quote

     Parallel version (MPI), running on     1 processors

     MPI processes distributed on     1 nodes
     0 MiB available memory on the printing compute node when the environment starts

     Reading input from Ge.scf.in

     Current dimensions of program PWSCF are:
     Max number of different atomic species (ntypx) = 10
     Max number of k-points (npk) =  40000
     Max angular momentum in pseudopotentials (lmaxx) =  4

     Subspace diagonalization in iterative solution of the eigenvalue problem:
     a serial algorithm will be used


     G-vector sticks info
     --------------------
     sticks:   dense  smooth     PW     G-vecs:    dense   smooth      PW
     Sum        1261    1261    367                29603    29603    4693

     Using Slab Decomposition



     bravais-lattice index     =            2
     lattice parameter (alat)  =      10.6902  a.u.
     unit-cell volume          =     305.4184 (a.u.)^3
     number of atoms/cell      =            2
     number of atomic types    =            1
     number of electrons       =        28.00
     number of Kohn-Sham states=           14
     kinetic-energy cutoff     =      80.0000  Ry
     charge density cutoff     =     320.0000  Ry
     scf convergence threshold =      1.0E-06
     mixing beta               =       0.7000
     number of iterations used =            8  plain     mixing
     Exchange-correlation=  SLA  PW   PBX  PBC
                           (   1   4   3   4   0   0   0)

     celldm(1)=  10.690181  celldm(2)=   0.000000  celldm(3)=   0.000000
     celldm(4)=   0.000000  celldm(5)=   0.000000  celldm(6)=   0.000000

     crystal axes: (cart. coord. in units of alat)
               a(1) = (  -0.500000   0.000000   0.500000 )  
               a(2) = (   0.000000   0.500000   0.500000 )  
               a(3) = (  -0.500000   0.500000   0.000000 )  

     reciprocal axes: (cart. coord. in units 2 pi/alat)
               b(1) = ( -1.000000 -1.000000  1.000000 )  
               b(2) = (  1.000000  1.000000  1.000000 )  
               b(3) = ( -1.000000  1.000000 -1.000000 )  


     PseudoPot. # 1 for Ge read from file:
     ./ge_pbe_v1.4.uspp.F.UPF
     MD5 check sum: 9c9eaa91e581c3f09632fb3098b2c6b2
     Pseudo is Ultrasoft + core correction, Zval = 14.0
     Generated by new atomic code, or converted to UPF format
     Using radial grid of  873 points,  6 beta functions with: 
                l(1) =   0
                l(2) =   0
                l(3) =   1
                l(4) =   1
                l(5) =   2
                l(6) =   2
     Q(r) pseudized with  8 coefficients,  rinner =    1.400   1.400   1.400
                                                       1.400   1.400

     atomic species   valence    mass     pseudopotential
        Ge            14.00    72.64000     Ge( 1.00)

     48 Sym. Ops., with inversion, found (24 have fractional translation)



   Cartesian axes

     site n.     atom                  positions (alat units)
         1           Ge  tau(   1) = (   0.0000000   0.0000000   0.0000000  )
         2           Ge  tau(   2) = (   0.2500000   0.2500000   0.2500000  )

     number of k points=    29
                       cart. coord. in units 2pi/alat
        k(    1) = (   0.0000000   0.0000000   0.0000000), wk =   0.0039062
        k(    2) = (  -0.1250000   0.1250000  -0.1250000), wk =   0.0312500
        k(    3) = (  -0.2500000   0.2500000  -0.2500000), wk =   0.0312500
        k(    4) = (  -0.3750000   0.3750000  -0.3750000), wk =   0.0312500
        k(    5) = (   0.5000000  -0.5000000   0.5000000), wk =   0.0156250
        k(    6) = (   0.0000000   0.2500000   0.0000000), wk =   0.0234375
        k(    7) = (  -0.1250000   0.3750000  -0.1250000), wk =   0.0937500
        k(    8) = (  -0.2500000   0.5000000  -0.2500000), wk =   0.0937500
        k(    9) = (   0.6250000  -0.3750000   0.6250000), wk =   0.0937500
        k(   10) = (   0.5000000  -0.2500000   0.5000000), wk =   0.0937500
        k(   11) = (   0.3750000  -0.1250000   0.3750000), wk =   0.0937500
        k(   12) = (   0.2500000   0.0000000   0.2500000), wk =   0.0468750
        k(   13) = (   0.0000000   0.5000000   0.0000000), wk =   0.0234375
        k(   14) = (  -0.1250000   0.6250000  -0.1250000), wk =   0.0937500
        k(   15) = (   0.7500000  -0.2500000   0.7500000), wk =   0.0937500
        k(   16) = (   0.6250000  -0.1250000   0.6250000), wk =   0.0937500
        k(   17) = (   0.5000000   0.0000000   0.5000000), wk =   0.0468750
        k(   18) = (   0.0000000   0.7500000   0.0000000), wk =   0.0234375
        k(   19) = (   0.8750000  -0.1250000   0.8750000), wk =   0.0937500
        k(   20) = (   0.7500000   0.0000000   0.7500000), wk =   0.0468750
        k(   21) = (   0.0000000  -1.0000000   0.0000000), wk =   0.0117188
        k(   22) = (  -0.2500000   0.5000000   0.0000000), wk =   0.0937500
        k(   23) = (   0.6250000  -0.3750000   0.8750000), wk =   0.1875000
        k(   24) = (   0.5000000  -0.2500000   0.7500000), wk =   0.0937500
        k(   25) = (   0.7500000  -0.2500000   1.0000000), wk =   0.0937500
        k(   26) = (   0.6250000  -0.1250000   0.8750000), wk =   0.1875000
        k(   27) = (   0.5000000   0.0000000   0.7500000), wk =   0.0937500
        k(   28) = (  -0.2500000  -1.0000000   0.0000000), wk =   0.0468750
        k(   29) = (  -0.5000000  -1.0000000   0.0000000), wk =   0.0234375

     Dense  grid:    29603 G-vectors     FFT dimensions: (  48,  48,  48)

     Estimated max dynamical RAM per process >     131.93 MB

     Check: negative core charge=   -0.000001

     Initial potential from superposition of free atoms

     starting charge      27.9983, renormalised to      28.0000
     Starting wfcs are   18 randomized atomic wfcs

     total cpu time spent up to now is        2.6 secs

     Self-consistent Calculation

     iteration #  1     ecut=    80.00 Ry     beta= 0.70
     Davidson diagonalization with overlap
     ethr =  1.00E-02,  avg # of iterations =  1.7

     Threshold (ethr) on eigenvalues was too large:
     Diagonalizing with lowered threshold

     Davidson diagonalization with overlap
     ethr =  1.14E-04,  avg # of iterations =  2.0

     total cpu time spent up to now is       11.6 secs

     total energy              =    -427.29860503 Ry
     estimated scf accuracy    <       0.03418617 Ry

     iteration #  2     ecut=    80.00 Ry     beta= 0.70
     Davidson diagonalization with overlap
     ethr =  1.22E-04,  avg # of iterations =  1.0

     total cpu time spent up to now is       15.8 secs

     total energy              =    -427.29950692 Ry
     estimated scf accuracy    <       0.00189151 Ry

     iteration #  3     ecut=    80.00 Ry     beta= 0.70
     Davidson diagonalization with overlap
     ethr =  6.76E-06,  avg # of iterations =  2.1

     total cpu time spent up to now is       20.7 secs

     total energy              =    -427.29964377 Ry
     estimated scf accuracy    <       0.00002914 Ry

     iteration #  4     ecut=    80.00 Ry     beta= 0.70
     Davidson diagonalization with overlap
     ethr =  1.04E-07,  avg # of iterations =  3.3

     total cpu time spent up to now is       26.7 secs

     total energy              =    -427.29965620 Ry
     estimated scf accuracy    <       0.00000294 Ry

     iteration #  5     ecut=    80.00 Ry     beta= 0.70
     Davidson diagonalization with overlap
     ethr =  1.05E-08,  avg # of iterations =  2.5

     total cpu time spent up to now is       32.2 secs

     End of self-consistent calculation

          k = 0.0000 0.0000 0.0000 (  3695 PWs)   bands (ev):

   -16.3314 -16.3314 -16.3314 -16.2959 -16.2959 -16.0844 -16.0844 -16.0844
   -16.0713 -16.0713  -4.3019   8.4733   8.4733   8.5082

          k =-0.1250 0.1250-0.1250 (  3716 PWs)   bands (ev):

   -16.3396 -16.3396 -16.3289 -16.2844 -16.2844 -16.0965 -16.0965 -16.0874
   -16.0610 -16.0610  -4.1115   6.1198   8.1383   8.1383

          k =-0.2500 0.2500-0.2500 (  3693 PWs)   bands (ev):

   -16.3497 -16.3497 -16.3228 -16.2672 -16.2672 -16.1104 -16.1104 -16.0945
   -16.0507 -16.0507  -3.5591   3.7573   7.5907   7.5907

          k =-0.3750 0.3750-0.3750 (  3693 PWs)   bands (ev):

   -16.3547 -16.3547 -16.3165 -16.2567 -16.2567 -16.1177 -16.1177 -16.1019
   -16.0452 -16.0452  -2.7497   1.8033   7.2029   7.2029

          k = 0.5000-0.5000 0.5000 (  3708 PWs)   bands (ev):

   -16.3559 -16.3559 -16.3139 -16.2539 -16.2539 -16.1193 -16.1193 -16.1051
   -16.0437 -16.0437  -2.2108   0.8753   7.0679   7.0679

          k = 0.0000 0.2500 0.0000 (  3691 PWs)   bands (ev):

   -16.3391 -16.3371 -16.3371 -16.2869 -16.2721 -16.1190 -16.0795 -16.0757
   -16.0757 -16.0563  -4.0471   6.0879   7.5990   7.5990

          k =-0.1250 0.3750-0.1250 (  3683 PWs)   bands (ev):

   -16.3527 -16.3453 -16.3285 -16.2728 -16.2520 -16.1395 -16.0962 -16.0788
   -16.0607 -16.0469  -3.6107   4.2976   6.9586   7.0363

          k =-0.2500 0.5000-0.2500 (  3698 PWs)   bands (ev):

   -16.3635 -16.3529 -16.3137 -16.2576 -16.2398 -16.1483 -16.1119 -16.0946
   -16.0490 -16.0360  -2.8628   2.3435   6.2802   6.7201

          k = 0.6250-0.3750 0.6250 (  3697 PWs)   bands (ev):

   -16.3680 -16.3581 -16.3012 -16.2460 -16.2421 -16.1403 -16.1253 -16.1103
   -16.0411 -16.0314  -2.1142   1.0057   5.8225   6.7169

          k = 0.5000-0.2500 0.5000 (  3701 PWs)   bands (ev):

   -16.3655 -16.3607 -16.2994 -16.2530 -16.2403 -16.1345 -16.1203 -16.1183
   -16.0373 -16.0352  -2.3199   1.3354   5.6799   7.0167

          k = 0.3750-0.1250 0.3750 (  3702 PWs)   bands (ev):

   -16.3588 -16.3565 -16.3107 -16.2646 -16.2468 -16.1322 -16.1169 -16.0960
   -16.0478 -16.0391  -3.1428   2.9644   5.9223   7.5463

          k = 0.2500 0.0000 0.2500 (  3681 PWs)   bands (ev):

   -16.3509 -16.3437 -16.3251 -16.2771 -16.2655 -16.1170 -16.1070 -16.0756
   -16.0666 -16.0472  -3.7984   4.8444   6.7329   8.0909

          k = 0.0000 0.5000 0.0000 (  3655 PWs)   bands (ev):

   -16.3497 -16.3497 -16.3380 -16.2616 -16.2264 -16.1718 -16.1029 -16.0585
   -16.0558 -16.0558  -3.2908   3.7605   6.4364   6.4364

          k =-0.1250 0.6250-0.1250 (  3675 PWs)   bands (ev):

   -16.3643 -16.3564 -16.3189 -16.2440 -16.2063 -16.1923 -16.1207 -16.0819
   -16.0446 -16.0357  -2.6313   2.4013   5.6195   6.0858

          k = 0.7500-0.2500 0.7500 (  3685 PWs)   bands (ev):

   -16.3770 -16.3620 -16.2941 -16.2268 -16.2072 -16.1884 -16.1404 -16.1088
   -16.0357 -16.0213  -1.8001   1.0904   4.7503   6.0710

          k = 0.6250-0.1250 0.6250 (  3694 PWs)   bands (ev):

   -16.3803 -16.3654 -16.2814 -16.2247 -16.2154 -16.1667 -16.1557 -16.1222
   -16.0312 -16.0183  -1.6376   0.8785   4.3271   6.3917

          k = 0.5000 0.0000 0.5000 (  3709 PWs)   bands (ev):

   -16.3722 -16.3648 -16.2876 -16.2515 -16.2239 -16.1519 -16.1323 -16.1194
   -16.0322 -16.0288  -2.4153   1.9476   4.6106   6.9681

          k = 0.0000 0.7500 0.0000 (  3687 PWs)   bands (ev):

   -16.3610 -16.3610 -16.3181 -16.2287 -16.2243 -16.1740 -16.1384 -16.0824
   -16.0372 -16.0372  -2.0611   1.5641   5.6644   5.6644

          k = 0.8750-0.1250 0.8750 (  3699 PWs)   bands (ev):

   -16.3722 -16.3646 -16.2921 -16.2445 -16.2037 -16.1597 -16.1571 -16.1099
   -16.0313 -16.0245  -1.2307   0.5163   4.9110   5.5765

          k = 0.7500 0.0000 0.7500 (  3703 PWs)   bands (ev):

   -16.3824 -16.3664 -16.2777 -16.2188 -16.1927 -16.1791 -16.1739 -16.1243
   -16.0291 -16.0147  -0.8840   0.1783   4.1397   5.8394

          k = 0.0000-1.0000 0.0000 (  3692 PWs)   bands (ev):

   -16.3653 -16.3653 -16.2801 -16.2801 -16.1809 -16.1809 -16.1233 -16.1233
   -16.0297 -16.0297  -0.4132  -0.4132   5.3988   5.3988

          k =-0.2500 0.5000 0.0000 (  3685 PWs)   bands (ev):

   -16.3602 -16.3576 -16.3148 -16.2596 -16.2308 -16.1613 -16.1092 -16.0898
   -16.0465 -16.0387  -3.0649   3.1075   5.6196   6.8574

          k = 0.6250-0.3750 0.8750 (  3692 PWs)   bands (ev):

   -16.3720 -16.3641 -16.2931 -16.2446 -16.2182 -16.1699 -16.1257 -16.1141
   -16.0346 -16.0274  -2.2565   1.6531   4.9324   6.3773

          k = 0.5000-0.2500 0.7500 (  3674 PWs)   bands (ev):

   -16.3772 -16.3655 -16.2832 -16.2335 -16.2197 -16.1648 -16.1424 -16.1217
   -16.0321 -16.0214  -1.6976   0.8274   4.7509   6.1618

          k = 0.7500-0.2500 1.0000 (  3683 PWs)   bands (ev):

   -16.3692 -16.3686 -16.2960 -16.2255 -16.2135 -16.1849 -16.1402 -16.1053
   -16.0293 -16.0290  -1.8900   1.3535   4.9709   5.5812

          k = 0.6250-0.1250 0.8750 (  3697 PWs)   bands (ev):

   -16.3806 -16.3711 -16.2702 -16.2152 -16.2068 -16.1816 -16.1621 -16.1298
   -16.0255 -16.0167  -1.1127   0.4437   4.3365   5.3890

          k = 0.5000 0.0000 0.7500 (  3693 PWs)   bands (ev):

   -16.3810 -16.3706 -16.2709 -16.2213 -16.1948 -16.1915 -16.1579 -16.1293
   -16.0262 -16.0170  -1.4392   0.8050   4.1859   5.7497

          k =-0.2500-1.0000 0.0000 (  3698 PWs)   bands (ev):

   -16.3731 -16.3731 -16.2609 -16.2609 -16.1826 -16.1826 -16.1397 -16.1397
   -16.0230 -16.0230  -0.3655  -0.3655   4.9337   4.9337

          k =-0.5000-1.0000 0.0000 (  3704 PWs)   bands (ev):

   -16.3792 -16.3792 -16.2375 -16.2375 -16.1887 -16.1887 -16.1564 -16.1564
   -16.0175 -16.0175  -0.3153  -0.3153   4.5699   4.5699

     highest occupied level (ev):     8.5082

!    total energy              =    -427.29965675 Ry
     estimated scf accuracy    <       0.00000011 Ry

     The total energy is the sum of the following terms:
     one-electron contribution =    -278.29164603 Ry
     hartree contribution      =     165.15983638 Ry
     xc contribution           =    -116.63846633 Ry
     ewald contribution        =    -197.52938078 Ry

     convergence has been achieved in   5 iterations

     Writing all to output data dir ./temp/Germanium.save/

     init_run     :      2.47s CPU      2.55s WALL (       1 calls)
     electrons    :     28.57s CPU     29.53s WALL (       1 calls)

     Called by init_run:
     wfcinit      :      1.72s CPU      1.77s WALL (       1 calls)
     potinit      :      0.07s CPU      0.07s WALL (       1 calls)
     hinit0       :      0.55s CPU      0.56s WALL (       1 calls)

     Called by electrons:
     c_bands      :     22.46s CPU     23.21s WALL (       6 calls)
     sum_band     :      5.42s CPU      5.59s WALL (       6 calls)
     v_of_rho     :      0.35s CPU      0.36s WALL (       6 calls)
     newd         :      0.44s CPU      0.49s WALL (       6 calls)
     mix_rho      :      0.02s CPU      0.02s WALL (       6 calls)

     Called by c_bands:
     init_us_2    :      0.64s CPU      0.66s WALL (     377 calls)
     init_us_2:cp :      0.64s CPU      0.66s WALL (     377 calls)
     cegterg      :     18.34s CPU     19.06s WALL (     174 calls)

     Called by *egterg:
     cdiaghg      :      0.09s CPU      0.09s WALL (     511 calls)
     h_psi        :     18.34s CPU     18.72s WALL (     569 calls)
     s_psi        :      0.20s CPU      0.27s WALL (     569 calls)
     g_psi        :      0.14s CPU      0.14s WALL (     366 calls)

     Called by h_psi:
     h_psi:calbec :      0.28s CPU      0.50s WALL (     569 calls)
     vloc_psi     :     17.82s CPU     17.89s WALL (     569 calls)
     add_vuspsi   :      0.20s CPU      0.27s WALL (     569 calls)

     General routines
     calbec       :      0.37s CPU      0.67s WALL (     743 calls)
     fft          :      0.16s CPU      0.16s WALL (      67 calls)
     ffts         :      0.01s CPU      0.01s WALL (       6 calls)
     fftw         :     12.87s CPU     12.93s WALL (   15300 calls)

     Parallel routines

     PWSCF        :     31.14s CPU     32.23s WALL


   This run was terminated on:  21:22: 6  23Mar2022            

=------------------------------------------------------------------------------=
   JOB DONE.
=------------------------------------------------------------------------------=
