
     Program PWSCF v.7.0 starts on 15Mar2022 at 16:38:15 

     This program is part of the open-source Quantum ESPRESSO suite
     for quantum simulation of materials; please cite
         "P. Giannozzi et al., J. Phys.:Condens. Matter 21 395502 (2009);
         "P. Giannozzi et al., J. Phys.:Condens. Matter 29 465901 (2017);
         "P. Giannozzi et al., J. Chem. Phys. 152 154105 (2020);
          URL http://www.quantum-espresso.org", 
     in publications or presentations arising from this work. More details at
     http://www.quantum-espresso.org/quote

     Parallel version (MPI), running on     1 processors

     MPI processes distributed on     1 nodes
     0 MiB available memory on the printing compute node when the environment starts

     Reading input from Ge.scf.in
     Message from routine read_cards :
     DEPRECATED: no units specified in ATOMIC_POSITIONS card
     Message from routine read_cards :
     ATOMIC_POSITIONS: units set to alat

     Current dimensions of program PWSCF are:
     Max number of different atomic species (ntypx) = 10
     Max number of k-points (npk) =  40000
     Max angular momentum in pseudopotentials (lmaxx) =  4

     Subspace diagonalization in iterative solution of the eigenvalue problem:
     a serial algorithm will be used


     G-vector sticks info
     --------------------
     sticks:   dense  smooth     PW     G-vecs:    dense   smooth      PW
     Sum         313     313    109                 3695     3695     725

     Using Slab Decomposition



     bravais-lattice index     =            2
     lattice parameter (alat)  =      10.6902  a.u.
     unit-cell volume          =     305.4184 (a.u.)^3
     number of atoms/cell      =            2
     number of atomic types    =            1
     number of electrons       =        28.00
     number of Kohn-Sham states=           14
     kinetic-energy cutoff     =      20.0000  Ry
     charge density cutoff     =      80.0000  Ry
     scf convergence threshold =      1.0E-06
     mixing beta               =       0.7000
     number of iterations used =            8  plain     mixing
     Exchange-correlation=  SLA  PW   PBX  PBC
                           (   1   4   3   4   0   0   0)

     celldm(1)=  10.690181  celldm(2)=   0.000000  celldm(3)=   0.000000
     celldm(4)=   0.000000  celldm(5)=   0.000000  celldm(6)=   0.000000

     crystal axes: (cart. coord. in units of alat)
               a(1) = (  -0.500000   0.000000   0.500000 )  
               a(2) = (   0.000000   0.500000   0.500000 )  
               a(3) = (  -0.500000   0.500000   0.000000 )  

     reciprocal axes: (cart. coord. in units 2 pi/alat)
               b(1) = ( -1.000000 -1.000000  1.000000 )  
               b(2) = (  1.000000  1.000000  1.000000 )  
               b(3) = ( -1.000000  1.000000 -1.000000 )  


     PseudoPot. # 1 for Ge read from file:
     /Users/vinhtran/Documents/GitHub/DFT/First_Principles_Energy_Methods/Problem_1/ge_pbe_v1.4.uspp.F.UPF
     MD5 check sum: 9c9eaa91e581c3f09632fb3098b2c6b2
     Pseudo is Ultrasoft + core correction, Zval = 14.0
     Generated by new atomic code, or converted to UPF format
     Using radial grid of  873 points,  6 beta functions with: 
                l(1) =   0
                l(2) =   0
                l(3) =   1
                l(4) =   1
                l(5) =   2
                l(6) =   2
     Q(r) pseudized with  8 coefficients,  rinner =    1.400   1.400   1.400
                                                       1.400   1.400

     atomic species   valence    mass     pseudopotential
        Ge            14.00    72.64000     Ge( 1.00)

     48 Sym. Ops., with inversion, found (24 have fractional translation)



   Cartesian axes

     site n.     atom                  positions (alat units)
         1           Ge  tau(   1) = (   0.0000000   0.0000000   0.0000000  )
         2           Ge  tau(   2) = (   0.2500000   0.2500000   0.2500000  )

     number of k points=   120

     Number of k-points >= 100: set verbosity='high' to print them.

     Dense  grid:     3695 G-vectors     FFT dimensions: (  24,  24,  24)

     Estimated max dynamical RAM per process >      25.97 MB

     Check: negative core charge=   -0.002158

     Initial potential from superposition of free atoms

     starting charge      27.9983, renormalised to      28.0000
     Starting wfcs are   18 randomized atomic wfcs

     total cpu time spent up to now is        1.0 secs

     Self-consistent Calculation

     iteration #  1     ecut=    20.00 Ry     beta= 0.70
     Davidson diagonalization with overlap
     ethr =  1.00E-02,  avg # of iterations =  1.3

     Threshold (ethr) on eigenvalues was too large:
     Diagonalizing with lowered threshold

     Davidson diagonalization with overlap
     ethr =  6.33E-04,  avg # of iterations =  1.0

     total cpu time spent up to now is        4.0 secs

     total energy              =    -426.06709457 Ry
     estimated scf accuracy    <       0.18512629 Ry

     iteration #  2     ecut=    20.00 Ry     beta= 0.70
     Davidson diagonalization with overlap
     ethr =  6.61E-04,  avg # of iterations =  2.0

     total cpu time spent up to now is        5.9 secs

     total energy              =    -426.11050083 Ry
     estimated scf accuracy    <       0.00688816 Ry

     iteration #  3     ecut=    20.00 Ry     beta= 0.70
     Davidson diagonalization with overlap
     ethr =  2.46E-05,  avg # of iterations =  2.2

     total cpu time spent up to now is        8.0 secs

     total energy              =    -426.11217725 Ry
     estimated scf accuracy    <       0.00008038 Ry

     iteration #  4     ecut=    20.00 Ry     beta= 0.70
     Davidson diagonalization with overlap
     ethr =  2.87E-07,  avg # of iterations =  4.0

     total cpu time spent up to now is        9.8 secs

     total energy              =    -426.11222279 Ry
     estimated scf accuracy    <       0.00000733 Ry

     iteration #  5     ecut=    20.00 Ry     beta= 0.70
     Davidson diagonalization with overlap
     ethr =  2.62E-08,  avg # of iterations =  3.2

     total cpu time spent up to now is       11.7 secs

     total energy              =    -426.11222422 Ry
     estimated scf accuracy    <       0.00000129 Ry

     iteration #  6     ecut=    20.00 Ry     beta= 0.70
     Davidson diagonalization with overlap
     ethr =  4.61E-09,  avg # of iterations =  2.1

     total cpu time spent up to now is       13.7 secs

     End of self-consistent calculation

     Number of k-points >= 100: set verbosity='high' to print the bands.

     highest occupied level (ev):     8.4942

!    total energy              =    -426.11222450 Ry
     estimated scf accuracy    <          5.9E-09 Ry

     The total energy is the sum of the following terms:
     one-electron contribution =    -273.44440157 Ry
     hartree contribution      =     160.79083077 Ry
     xc contribution           =    -115.92927274 Ry
     ewald contribution        =    -197.52938096 Ry

     convergence has been achieved in   6 iterations

     Writing all to output data dir /Users/vinhtran/Documents/GitHub/DFT/First_Principles_Energy_Methods/Problem_1/Germanium.save/

     init_run     :      0.87s CPU      0.89s WALL (       1 calls)
     electrons    :     12.42s CPU     12.70s WALL (       1 calls)

     Called by init_run:
     wfcinit      :      0.64s CPU      0.65s WALL (       1 calls)
     potinit      :      0.01s CPU      0.01s WALL (       1 calls)
     hinit0       :      0.21s CPU      0.22s WALL (       1 calls)

     Called by electrons:
     c_bands      :     10.23s CPU     10.46s WALL (       7 calls)
     sum_band     :      2.11s CPU      2.14s WALL (       7 calls)
     v_of_rho     :      0.03s CPU      0.03s WALL (       7 calls)
     newd         :      0.05s CPU      0.06s WALL (       7 calls)
     mix_rho      :      0.00s CPU      0.00s WALL (       7 calls)

     Called by c_bands:
     init_us_2    :      0.31s CPU      0.32s WALL (    1800 calls)
     init_us_2:cp :      0.31s CPU      0.32s WALL (    1800 calls)
     cegterg      :      8.29s CPU      8.47s WALL (     840 calls)

     Called by *egterg:
     cdiaghg      :      0.38s CPU      0.38s WALL (    2613 calls)
     h_psi        :      7.69s CPU      7.83s WALL (    2853 calls)
     s_psi        :      0.10s CPU      0.11s WALL (    2853 calls)
     g_psi        :      0.07s CPU      0.08s WALL (    1893 calls)

     Called by h_psi:
     h_psi:calbec :      0.15s CPU      0.17s WALL (    2853 calls)
     vloc_psi     :      7.40s CPU      7.50s WALL (    2853 calls)
     add_vuspsi   :      0.12s CPU      0.12s WALL (    2853 calls)

     General routines
     calbec       :      0.19s CPU      0.21s WALL (    3693 calls)
     fft          :      0.01s CPU      0.01s WALL (      78 calls)
     ffts         :      0.00s CPU      0.00s WALL (       7 calls)
     fftw         :      4.75s CPU      4.82s WALL (   75580 calls)

     Parallel routines

     PWSCF        :     13.37s CPU     13.70s WALL


   This run was terminated on:  16:38:29  15Mar2022            

=------------------------------------------------------------------------------=
   JOB DONE.
=------------------------------------------------------------------------------=
