
     Program PWSCF v.7.0 starts on 18Mar2022 at 23:37:54 

     This program is part of the open-source Quantum ESPRESSO suite
     for quantum simulation of materials; please cite
         "P. Giannozzi et al., J. Phys.:Condens. Matter 21 395502 (2009);
         "P. Giannozzi et al., J. Phys.:Condens. Matter 29 465901 (2017);
         "P. Giannozzi et al., J. Chem. Phys. 152 154105 (2020);
          URL http://www.quantum-espresso.org", 
     in publications or presentations arising from this work. More details at
     http://www.quantum-espresso.org/quote

     Parallel version (MPI), running on     1 processors

     MPI processes distributed on     1 nodes
     0 MiB available memory on the printing compute node when the environment starts

     Reading input from Ge.scf.in
     Message from routine read_cards :
     DEPRECATED: no units specified in ATOMIC_POSITIONS card
     Message from routine read_cards :
     ATOMIC_POSITIONS: units set to alat

     Current dimensions of program PWSCF are:
     Max number of different atomic species (ntypx) = 10
     Max number of k-points (npk) =  40000
     Max angular momentum in pseudopotentials (lmaxx) =  4

     Subspace diagonalization in iterative solution of the eigenvalue problem:
     a serial algorithm will be used


     G-vector sticks info
     --------------------
     sticks:   dense  smooth     PW     G-vecs:    dense   smooth      PW
     Sum         571     571    187                 8873     8873    1591

     Using Slab Decomposition



     bravais-lattice index     =            2
     lattice parameter (alat)  =      11.7000  a.u.
     unit-cell volume          =     400.4032 (a.u.)^3
     number of atoms/cell      =            2
     number of atomic types    =            1
     number of electrons       =        28.00
     number of Kohn-Sham states=           14
     kinetic-energy cutoff     =      30.0000  Ry
     charge density cutoff     =     120.0000  Ry
     scf convergence threshold =      1.0E-06
     mixing beta               =       0.7000
     number of iterations used =            8  plain     mixing
     Exchange-correlation=  SLA  PW   PBX  PBC
                           (   1   4   3   4   0   0   0)

     celldm(1)=  11.700000  celldm(2)=   0.000000  celldm(3)=   0.000000
     celldm(4)=   0.000000  celldm(5)=   0.000000  celldm(6)=   0.000000

     crystal axes: (cart. coord. in units of alat)
               a(1) = (  -0.500000   0.000000   0.500000 )  
               a(2) = (   0.000000   0.500000   0.500000 )  
               a(3) = (  -0.500000   0.500000   0.000000 )  

     reciprocal axes: (cart. coord. in units 2 pi/alat)
               b(1) = ( -1.000000 -1.000000  1.000000 )  
               b(2) = (  1.000000  1.000000  1.000000 )  
               b(3) = ( -1.000000  1.000000 -1.000000 )  


     PseudoPot. # 1 for Ge read from file:
     ./ge_pbe_v1.4.uspp.F.UPF
     MD5 check sum: 9c9eaa91e581c3f09632fb3098b2c6b2
     Pseudo is Ultrasoft + core correction, Zval = 14.0
     Generated by new atomic code, or converted to UPF format
     Using radial grid of  873 points,  6 beta functions with: 
                l(1) =   0
                l(2) =   0
                l(3) =   1
                l(4) =   1
                l(5) =   2
                l(6) =   2
     Q(r) pseudized with  8 coefficients,  rinner =    1.400   1.400   1.400
                                                       1.400   1.400

     atomic species   valence    mass     pseudopotential
        Ge            14.00    72.64000     Ge( 1.00)

     48 Sym. Ops., with inversion, found (24 have fractional translation)



   Cartesian axes

     site n.     atom                  positions (alat units)
         1           Ge  tau(   1) = (   0.0000000   0.0000000   0.0000000  )
         2           Ge  tau(   2) = (   0.2500000   0.2500000   0.2500000  )

     number of k points=    29
                       cart. coord. in units 2pi/alat
        k(    1) = (   0.0000000   0.0000000   0.0000000), wk =   0.0039062
        k(    2) = (  -0.1250000   0.1250000  -0.1250000), wk =   0.0312500
        k(    3) = (  -0.2500000   0.2500000  -0.2500000), wk =   0.0312500
        k(    4) = (  -0.3750000   0.3750000  -0.3750000), wk =   0.0312500
        k(    5) = (   0.5000000  -0.5000000   0.5000000), wk =   0.0156250
        k(    6) = (   0.0000000   0.2500000   0.0000000), wk =   0.0234375
        k(    7) = (  -0.1250000   0.3750000  -0.1250000), wk =   0.0937500
        k(    8) = (  -0.2500000   0.5000000  -0.2500000), wk =   0.0937500
        k(    9) = (   0.6250000  -0.3750000   0.6250000), wk =   0.0937500
        k(   10) = (   0.5000000  -0.2500000   0.5000000), wk =   0.0937500
        k(   11) = (   0.3750000  -0.1250000   0.3750000), wk =   0.0937500
        k(   12) = (   0.2500000   0.0000000   0.2500000), wk =   0.0468750
        k(   13) = (   0.0000000   0.5000000   0.0000000), wk =   0.0234375
        k(   14) = (  -0.1250000   0.6250000  -0.1250000), wk =   0.0937500
        k(   15) = (   0.7500000  -0.2500000   0.7500000), wk =   0.0937500
        k(   16) = (   0.6250000  -0.1250000   0.6250000), wk =   0.0937500
        k(   17) = (   0.5000000   0.0000000   0.5000000), wk =   0.0468750
        k(   18) = (   0.0000000   0.7500000   0.0000000), wk =   0.0234375
        k(   19) = (   0.8750000  -0.1250000   0.8750000), wk =   0.0937500
        k(   20) = (   0.7500000   0.0000000   0.7500000), wk =   0.0468750
        k(   21) = (   0.0000000  -1.0000000   0.0000000), wk =   0.0117188
        k(   22) = (  -0.2500000   0.5000000   0.0000000), wk =   0.0937500
        k(   23) = (   0.6250000  -0.3750000   0.8750000), wk =   0.1875000
        k(   24) = (   0.5000000  -0.2500000   0.7500000), wk =   0.0937500
        k(   25) = (   0.7500000  -0.2500000   1.0000000), wk =   0.0937500
        k(   26) = (   0.6250000  -0.1250000   0.8750000), wk =   0.1875000
        k(   27) = (   0.5000000   0.0000000   0.7500000), wk =   0.0937500
        k(   28) = (  -0.2500000  -1.0000000   0.0000000), wk =   0.0468750
        k(   29) = (  -0.5000000  -1.0000000   0.0000000), wk =   0.0234375

     Dense  grid:     8873 G-vectors     FFT dimensions: (  32,  32,  32)

     Estimated max dynamical RAM per process >      40.00 MB

     Check: negative core charge=   -0.000129

     Initial potential from superposition of free atoms

     starting charge      27.9983, renormalised to      28.0000
     Starting wfcs are   18 randomized atomic wfcs

     total cpu time spent up to now is        0.9 secs

     Self-consistent Calculation

     iteration #  1     ecut=    30.00 Ry     beta= 0.70
     Davidson diagonalization with overlap
     ethr =  1.00E-02,  avg # of iterations =  1.3

     Threshold (ethr) on eigenvalues was too large:
     Diagonalizing with lowered threshold

     Davidson diagonalization with overlap
     ethr =  7.54E-05,  avg # of iterations =  2.1

     total cpu time spent up to now is        3.2 secs

     total energy              =    -427.24841194 Ry
     estimated scf accuracy    <       0.02340566 Ry

     iteration #  2     ecut=    30.00 Ry     beta= 0.70
     Davidson diagonalization with overlap
     ethr =  8.36E-05,  avg # of iterations =  1.0

     total cpu time spent up to now is        4.3 secs

     total energy              =    -427.24928004 Ry
     estimated scf accuracy    <       0.00168294 Ry

     iteration #  3     ecut=    30.00 Ry     beta= 0.70
     Davidson diagonalization with overlap
     ethr =  6.01E-06,  avg # of iterations =  2.1

     total cpu time spent up to now is        5.5 secs

     total energy              =    -427.24940333 Ry
     estimated scf accuracy    <       0.00005640 Ry

     iteration #  4     ecut=    30.00 Ry     beta= 0.70
     Davidson diagonalization with overlap
     ethr =  2.01E-07,  avg # of iterations =  3.1

     total cpu time spent up to now is        7.0 secs

     total energy              =    -427.24942378 Ry
     estimated scf accuracy    <       0.00000275 Ry

     iteration #  5     ecut=    30.00 Ry     beta= 0.70
     Davidson diagonalization with overlap
     ethr =  9.82E-09,  avg # of iterations =  3.9

     total cpu time spent up to now is        8.4 secs

     End of self-consistent calculation

          k = 0.0000 0.0000 0.0000 (  1139 PWs)   bands (ev):

   -19.3110 -19.3110 -19.3110 -19.2808 -19.2808 -19.1926 -19.1926 -19.1811
   -19.1811 -19.1811  -5.6138   3.2006   5.3832   5.3832

          k =-0.1250 0.1250-0.1250 (  1113 PWs)   bands (ev):

   -19.3041 -19.3041 -19.3015 -19.2774 -19.2774 -19.1897 -19.1897 -19.1866
   -19.1754 -19.1754  -5.4689   2.2719   5.1506   5.1506

          k =-0.2500 0.2500-0.2500 (  1101 PWs)   bands (ev):

   -19.3109 -19.3109 -19.2914 -19.2703 -19.2703 -19.1970 -19.1970 -19.1826
   -19.1692 -19.1692  -5.0540   0.7133   4.7453   4.7453

          k =-0.3750 0.3750-0.3750 (  1113 PWs)   bands (ev):

   -19.3127 -19.3127 -19.3015 -19.2698 -19.2698 -19.2014 -19.2014 -19.1905
   -19.1671 -19.1671  -4.4685  -0.6645   4.4472   4.4472

          k = 0.5000-0.5000 0.5000 (  1104 PWs)   bands (ev):

   -19.3089 -19.3089 -19.3012 -19.2707 -19.2707 -19.1987 -19.1987 -19.1836
   -19.1675 -19.1675  -4.1074  -1.3021   4.3420   4.3420

          k = 0.0000 0.2500 0.0000 (  1114 PWs)   bands (ev):

   -19.3095 -19.3095 -19.3039 -19.2766 -19.2739 -19.1995 -19.1793 -19.1792
   -19.1792 -19.1727  -5.4195   2.1098   4.7822   4.7822

          k =-0.1250 0.3750-0.1250 (  1110 PWs)   bands (ev):

   -19.3131 -19.3122 -19.2992 -19.2718 -19.2644 -19.2106 -19.1938 -19.1797
   -19.1725 -19.1673  -5.0896   0.9519   4.2317   4.3631

          k =-0.2500 0.5000-0.2500 (  1105 PWs)   bands (ev):

   -19.3193 -19.3131 -19.2928 -19.2637 -19.2580 -19.2139 -19.2024 -19.1885
   -19.1662 -19.1625  -4.5386  -0.3830   3.6546   4.1142

          k = 0.6250-0.3750 0.6250 (  1113 PWs)   bands (ev):

   -19.3225 -19.3163 -19.2928 -19.2619 -19.2611 -19.2126 -19.2072 -19.1985
   -19.1621 -19.1615  -4.0216  -1.2992   3.2934   4.0983

          k = 0.5000-0.2500 0.5000 (  1111 PWs)   bands (ev):

   -19.3209 -19.3170 -19.2911 -19.2657 -19.2612 -19.2088 -19.2035 -19.1991
   -19.1626 -19.1620  -4.1594  -1.0767   3.2216   4.3114

          k = 0.3750-0.1250 0.3750 (  1104 PWs)   bands (ev):

   -19.3185 -19.3130 -19.2885 -19.2688 -19.2634 -19.2082 -19.1990 -19.1897
   -19.1647 -19.1640  -4.7437   0.0492   3.4874   4.6970

          k = 0.2500 0.0000 0.2500 (  1107 PWs)   bands (ev):

   -19.3126 -19.3091 -19.2990 -19.2722 -19.2685 -19.2015 -19.1917 -19.1818
   -19.1717 -19.1678  -5.2319   1.3566   4.1653   5.0933

          k = 0.0000 0.5000 0.0000 (  1094 PWs)   bands (ev):

   -19.3113 -19.3113 -19.3000 -19.2658 -19.2506 -19.2205 -19.1940 -19.1715
   -19.1660 -19.1660  -4.8449   0.4327   3.9204   3.9204

          k =-0.1250 0.6250-0.1250 (  1108 PWs)   bands (ev):

   -19.3201 -19.3166 -19.2964 -19.2613 -19.2434 -19.2333 -19.2043 -19.1843
   -19.1631 -19.1614  -4.3514  -0.5432   3.3073   3.6514

          k = 0.7500-0.2500 0.7500 (  1108 PWs)   bands (ev):

   -19.3286 -19.3204 -19.2842 -19.2505 -19.2417 -19.2333 -19.2155 -19.1986
   -19.1604 -19.1544  -3.7564  -1.4610   2.6500   3.6318

          k = 0.6250-0.1250 0.6250 (  1119 PWs)   bands (ev):

   -19.3318 -19.3234 -19.2818 -19.2547 -19.2519 -19.2227 -19.2207 -19.2050
   -19.1618 -19.1551  -3.6551  -1.5951   2.3530   3.8633

          k = 0.5000 0.0000 0.5000 (  1117 PWs)   bands (ev):

   -19.3245 -19.3237 -19.2833 -19.2643 -19.2563 -19.2178 -19.2062 -19.2042
   -19.1626 -19.1613  -4.2075  -0.8196   2.5905   4.2818

          k = 0.0000 0.7500 0.0000 (  1094 PWs)   bands (ev):

   -19.3202 -19.3202 -19.2928 -19.2468 -19.2458 -19.2264 -19.2090 -19.1789
   -19.1594 -19.1594  -3.9160  -1.2027   3.3345   3.3345

          k = 0.8750-0.1250 0.8750 (  1112 PWs)   bands (ev):

   -19.3273 -19.3259 -19.2815 -19.2577 -19.2443 -19.2248 -19.2172 -19.1975
   -19.1621 -19.1557  -3.3023  -1.9859   2.8123   3.2650

          k = 0.7500 0.0000 0.7500 (  1121 PWs)   bands (ev):

   -19.3339 -19.3280 -19.2751 -19.2496 -19.2404 -19.2351 -19.2297 -19.2067
   -19.1627 -19.1508  -3.0874  -2.2090   2.2768   3.4581

          k = 0.0000-1.0000 0.0000 (  1106 PWs)   bands (ev):

   -19.3251 -19.3251 -19.2751 -19.2751 -19.2273 -19.2273 -19.2045 -19.2045
   -19.1604 -19.1604  -2.6794  -2.6794   3.1317   3.1317

          k =-0.2500 0.5000 0.0000 (  1110 PWs)   bands (ev):

   -19.3196 -19.3163 -19.2941 -19.2657 -19.2551 -19.2204 -19.2020 -19.1860
   -19.1654 -19.1636  -4.6802   0.0263   3.3326   4.1950

          k = 0.6250-0.3750 0.8750 (  1108 PWs)   bands (ev):

   -19.3238 -19.3199 -19.2856 -19.2602 -19.2498 -19.2237 -19.2071 -19.1961
   -19.1608 -19.1589  -4.0911  -1.0133   2.7721   3.8658

          k = 0.5000-0.2500 0.7500 (  1118 PWs)   bands (ev):

   -19.3294 -19.3229 -19.2838 -19.2560 -19.2522 -19.2243 -19.2149 -19.2040
   -19.1613 -19.1575  -3.7085  -1.5720   2.5984   3.7194

          k = 0.7500-0.2500 1.0000 (  1105 PWs)   bands (ev):

   -19.3252 -19.3227 -19.2851 -19.2498 -19.2426 -19.2304 -19.2153 -19.1923
   -19.1583 -19.1576  -3.8008  -1.3517   2.8497   3.3030

          k = 0.6250-0.1250 0.8750 (  1112 PWs)   bands (ev):

   -19.3322 -19.3264 -19.2736 -19.2450 -19.2427 -19.2348 -19.2242 -19.2065
   -19.1567 -19.1524  -3.2479  -2.0215   2.4031   3.1678

          k = 0.5000 0.0000 0.7500 (  1112 PWs)   bands (ev):

   -19.3314 -19.3243 -19.2731 -19.2528 -19.2416 -19.2315 -19.2208 -19.2091
   -19.1567 -19.1538  -3.4930  -1.7377   2.2967   3.4246

          k =-0.2500-1.0000 0.0000 (  1108 PWs)   bands (ev):

   -19.3282 -19.3282 -19.2681 -19.2681 -19.2313 -19.2313 -19.2092 -19.2092
   -19.1564 -19.1564  -2.6600  -2.6600   2.8317   2.8317

          k =-0.5000-1.0000 0.0000 (  1124 PWs)   bands (ev):

   -19.3330 -19.3330 -19.2584 -19.2584 -19.2378 -19.2378 -19.2258 -19.2258
   -19.1533 -19.1533  -2.6402  -2.6402   2.5920   2.5920

     highest occupied level (ev):     5.3832

!    total energy              =    -427.24942459 Ry
     estimated scf accuracy    <       0.00000020 Ry

     The total energy is the sum of the following terms:
     one-electron contribution =    -306.63177535 Ry
     hartree contribution      =     176.20247274 Ry
     xc contribution           =    -116.33936697 Ry
     ewald contribution        =    -180.48075501 Ry

     convergence has been achieved in   5 iterations

     Writing all to output data dir ./Germanium.save/

     init_run     :      0.81s CPU      0.82s WALL (       1 calls)
     electrons    :      7.32s CPU      7.51s WALL (       1 calls)

     Called by init_run:
     wfcinit      :      0.42s CPU      0.43s WALL (       1 calls)
     potinit      :      0.02s CPU      0.02s WALL (       1 calls)
     hinit0       :      0.33s CPU      0.33s WALL (       1 calls)

     Called by electrons:
     c_bands      :      5.73s CPU      5.87s WALL (       6 calls)
     sum_band     :      1.40s CPU      1.43s WALL (       6 calls)
     v_of_rho     :      0.09s CPU      0.09s WALL (       6 calls)
     newd         :      0.13s CPU      0.14s WALL (       6 calls)
     mix_rho      :      0.00s CPU      0.01s WALL (       6 calls)

     Called by c_bands:
     init_us_2    :      0.20s CPU      0.20s WALL (     377 calls)
     init_us_2:cp :      0.19s CPU      0.20s WALL (     377 calls)
     cegterg      :      4.49s CPU      4.62s WALL (     174 calls)

     Called by *egterg:
     cdiaghg      :      0.09s CPU      0.10s WALL (     537 calls)
     h_psi        :      4.34s CPU      4.43s WALL (     595 calls)
     s_psi        :      0.05s CPU      0.06s WALL (     595 calls)
     g_psi        :      0.04s CPU      0.04s WALL (     392 calls)

     Called by h_psi:
     h_psi:calbec :      0.07s CPU      0.10s WALL (     595 calls)
     vloc_psi     :      4.20s CPU      4.24s WALL (     595 calls)
     add_vuspsi   :      0.06s CPU      0.06s WALL (     595 calls)

     General routines
     calbec       :      0.09s CPU      0.13s WALL (     769 calls)
     fft          :      0.03s CPU      0.03s WALL (      67 calls)
     ffts         :      0.00s CPU      0.00s WALL (       6 calls)
     fftw         :      2.52s CPU      2.54s WALL (   15310 calls)

     Parallel routines

     PWSCF        :      8.22s CPU      8.44s WALL


   This run was terminated on:  23:38: 3  18Mar2022            

=------------------------------------------------------------------------------=
   JOB DONE.
=------------------------------------------------------------------------------=
