
     Program PWSCF v.7.0 starts on 24Mar2022 at 13:21:21 

     This program is part of the open-source Quantum ESPRESSO suite
     for quantum simulation of materials; please cite
         "P. Giannozzi et al., J. Phys.:Condens. Matter 21 395502 (2009);
         "P. Giannozzi et al., J. Phys.:Condens. Matter 29 465901 (2017);
         "P. Giannozzi et al., J. Chem. Phys. 152 154105 (2020);
          URL http://www.quantum-espresso.org", 
     in publications or presentations arising from this work. More details at
     http://www.quantum-espresso.org/quote

     Parallel version (MPI), running on     1 processors

     MPI processes distributed on     1 nodes
     0 MiB available memory on the printing compute node when the environment starts

     Reading input from fe.vc-relax.hcp.in

     Current dimensions of program PWSCF are:
     Max number of different atomic species (ntypx) = 10
     Max number of k-points (npk) =  40000
     Max angular momentum in pseudopotentials (lmaxx) =  4

     Subspace diagonalization in iterative solution of the eigenvalue problem:
     a serial algorithm will be used


     G-vector sticks info
     --------------------
     sticks:   dense  smooth     PW     G-vecs:    dense   smooth      PW
     Sum         613     199     61                20293     3935     701

     Using Slab Decomposition



     bravais-lattice index     =            4
     lattice parameter (alat)  =       5.0000  a.u.
     unit-cell volume          =     176.7774 (a.u.)^3
     number of atoms/cell      =            2
     number of atomic types    =            1
     number of electrons       =        32.00
     number of Kohn-Sham states=           20
     kinetic-energy cutoff     =      30.0000  Ry
     charge density cutoff     =     360.0000  Ry
     scf convergence threshold =      1.0E-06
     mixing beta               =       0.7000
     number of iterations used =            8  plain     mixing
     energy convergence thresh.=      1.0E-04
     force convergence thresh. =      1.0E-03
     press convergence thresh. =      5.0E-01
     Exchange-correlation= PBE
                           (   1   4   3   4   0   0   0)
     nstep                     =           50


     celldm(1)=   5.000000  celldm(2)=   0.000000  celldm(3)=   1.633000
     celldm(4)=   0.000000  celldm(5)=   0.000000  celldm(6)=   0.000000

     crystal axes: (cart. coord. in units of alat)
               a(1) = (   1.000000   0.000000   0.000000 )  
               a(2) = (  -0.500000   0.866025   0.000000 )  
               a(3) = (   0.000000   0.000000   1.633000 )  

     reciprocal axes: (cart. coord. in units 2 pi/alat)
               b(1) = (  1.000000  0.577350 -0.000000 )  
               b(2) = (  0.000000  1.154701  0.000000 )  
               b(3) = (  0.000000 -0.000000  0.612370 )  


     PseudoPot. # 1 for Fe read from file:
     /Users/vinhtran/Documents/GitHub/Harvard_APPHY_275/Lab_3/Problem_1/Part_1/Fe.pbe-spn-rrkjus_psl.1.0.0.UPF
     MD5 check sum: 72ea77fed8e64ab3a2ccf2804dfc1862
     Pseudo is Ultrasoft + core correction, Zval = 16.0
     Generated using &quot;atomic&quot; code by A. Dal Corso  v.6.3
     Using radial grid of 1191 points,  6 beta functions with: 
                l(1) =   0
                l(2) =   0
                l(3) =   1
                l(4) =   1
                l(5) =   2
                l(6) =   2
     Q(r) pseudized with 0 coefficients 


     atomic species   valence    mass     pseudopotential
        Fe            16.00    55.84700     Fe( 1.00)

     Starting magnetic structure 
     atomic species   magnetization
        Fe           0.700

     12 Sym. Ops., with inversion, found ( 6 have fractional translation)



   Cartesian axes

     site n.     atom                  positions (alat units)
         1           Fe  tau(   1) = (   0.0000000   0.0000000   0.0000000  )
         2           Fe  tau(   2) = (   0.5000000  -0.2886751   0.5443333  )

     number of k points=     2  Methfessel-Paxton smearing, width (Ry)=  0.0200
                       cart. coord. in units 2pi/alat
        k(    1) = (   0.0000000   0.0000000   0.0000000), wk =   0.2500000
        k(    2) = (   0.0000000  -0.5773503   0.0000000), wk =   0.7500000

     Dense  grid:    20293 G-vectors     FFT dimensions: (  36,  36,  54)

     Smooth grid:     3935 G-vectors     FFT dimensions: (  18,  18,  30)

     Estimated max dynamical RAM per process >      88.75 MB

     Check: negative core charge=   -0.000004
     Generating pointlists ...
     new r_m :   0.3273 (alat units)  1.6366 (a.u.) for type    1

     Initial potential from superposition of free atoms

     starting charge      31.9991, renormalised to      32.0000
     Starting wfcs are   20 randomized atomic wfcs

     total cpu time spent up to now is        2.2 secs

     Self-consistent Calculation

     iteration #  1     ecut=    30.00 Ry     beta= 0.70
     Davidson diagonalization with overlap
     ethr =  1.00E-02,  avg # of iterations =  3.0

     negative rho (up, down):  2.306E-04 1.231E-02

     total cpu time spent up to now is        2.5 secs

     total energy              =    -490.01959902 Ry
     estimated scf accuracy    <       4.42485168 Ry

     total magnetization       =     8.00 Bohr mag/cell
     absolute magnetization    =     8.10 Bohr mag/cell

     iteration #  2     ecut=    30.00 Ry     beta= 0.70
     Davidson diagonalization with overlap
     ethr =  1.00E-02,  avg # of iterations =  2.0

     negative rho (up, down):  0.000E+00 1.818E-02

     total cpu time spent up to now is        2.8 secs

     total energy              =    -490.37749310 Ry
     estimated scf accuracy    <       1.94453869 Ry

     total magnetization       =     6.03 Bohr mag/cell
     absolute magnetization    =     6.16 Bohr mag/cell

     iteration #  3     ecut=    30.00 Ry     beta= 0.70
     Davidson diagonalization with overlap
     ethr =  6.08E-03,  avg # of iterations =  2.2

     negative rho (up, down):  2.017E-04 4.470E-02

     total cpu time spent up to now is        3.1 secs

     total energy              =    -491.00950922 Ry
     estimated scf accuracy    <       1.25609268 Ry

     total magnetization       =     4.86 Bohr mag/cell
     absolute magnetization    =     5.20 Bohr mag/cell

     iteration #  4     ecut=    30.00 Ry     beta= 0.70
     Davidson diagonalization with overlap
     ethr =  3.93E-03,  avg # of iterations =  2.0

     negative rho (up, down):  8.917E-04 8.812E-02

     total cpu time spent up to now is        3.3 secs

     total energy              =    -491.17897682 Ry
     estimated scf accuracy    <       0.23195593 Ry

     total magnetization       =     4.47 Bohr mag/cell
     absolute magnetization    =     5.38 Bohr mag/cell

     iteration #  5     ecut=    30.00 Ry     beta= 0.70
     Davidson diagonalization with overlap
     ethr =  7.25E-04,  avg # of iterations =  2.8

     negative rho (up, down):  1.456E-02 1.865E-01

     total cpu time spent up to now is        3.6 secs

     total energy              =    -490.71978355 Ry
     estimated scf accuracy    <       0.98056014 Ry

     total magnetization       =     4.34 Bohr mag/cell
     absolute magnetization    =     6.73 Bohr mag/cell

     iteration #  6     ecut=    30.00 Ry     beta= 0.70
     Davidson diagonalization with overlap
     ethr =  7.25E-04,  avg # of iterations =  2.2

     negative rho (up, down):  2.284E-03 4.804E-02

     total cpu time spent up to now is        3.9 secs

     total energy              =    -491.03288747 Ry
     estimated scf accuracy    <       0.24513927 Ry

     total magnetization       =     3.40 Bohr mag/cell
     absolute magnetization    =     4.60 Bohr mag/cell

     iteration #  7     ecut=    30.00 Ry     beta= 0.70
     Davidson diagonalization with overlap
     ethr =  7.25E-04,  avg # of iterations =  1.8

     negative rho (up, down):  8.056E-04 2.719E-02

     total cpu time spent up to now is        4.2 secs

     total energy              =    -490.95925099 Ry
     estimated scf accuracy    <       0.20014334 Ry

     total magnetization       =     3.29 Bohr mag/cell
     absolute magnetization    =     4.41 Bohr mag/cell

     iteration #  8     ecut=    30.00 Ry     beta= 0.70
     Davidson diagonalization with overlap
     ethr =  6.25E-04,  avg # of iterations =  2.0

     negative rho (up, down):  4.397E-04 8.212E-03

     total cpu time spent up to now is        4.5 secs

     total energy              =    -491.00074141 Ry
     estimated scf accuracy    <       0.04785999 Ry

     total magnetization       =     2.95 Bohr mag/cell
     absolute magnetization    =     3.77 Bohr mag/cell

     iteration #  9     ecut=    30.00 Ry     beta= 0.70
     Davidson diagonalization with overlap
     ethr =  1.50E-04,  avg # of iterations =  2.5

     negative rho (up, down):  1.313E-03 4.458E-03

     total cpu time spent up to now is        4.8 secs

     total energy              =    -491.04213940 Ry
     estimated scf accuracy    <       0.02610374 Ry

     total magnetization       =     3.09 Bohr mag/cell
     absolute magnetization    =     3.62 Bohr mag/cell

     iteration # 10     ecut=    30.00 Ry     beta= 0.70
     Davidson diagonalization with overlap
     ethr =  8.16E-05,  avg # of iterations =  2.5

     negative rho (up, down):  1.961E-03 3.080E-03

     total cpu time spent up to now is        5.0 secs

     total energy              =    -491.10702193 Ry
     estimated scf accuracy    <       0.02142037 Ry

     total magnetization       =     3.00 Bohr mag/cell
     absolute magnetization    =     3.58 Bohr mag/cell

     iteration # 11     ecut=    30.00 Ry     beta= 0.70
     Davidson diagonalization with overlap
     ethr =  6.69E-05,  avg # of iterations =  2.2

     negative rho (up, down):  8.426E-03 2.197E-03

     total cpu time spent up to now is        5.3 secs

     total energy              =    -491.13235625 Ry
     estimated scf accuracy    <       0.07521974 Ry

     total magnetization       =     3.01 Bohr mag/cell
     absolute magnetization    =     3.65 Bohr mag/cell

     iteration # 12     ecut=    30.00 Ry     beta= 0.70
     Davidson diagonalization with overlap
     ethr =  6.69E-05,  avg # of iterations =  2.8

     negative rho (up, down):  1.108E-02 2.164E-03

     total cpu time spent up to now is        5.6 secs

     total energy              =    -491.12444184 Ry
     estimated scf accuracy    <       0.05276218 Ry

     total magnetization       =     3.05 Bohr mag/cell
     absolute magnetization    =     3.75 Bohr mag/cell

     iteration # 13     ecut=    30.00 Ry     beta= 0.70
     Davidson diagonalization with overlap
     ethr =  6.69E-05,  avg # of iterations =  1.5

     negative rho (up, down):  1.142E-02 2.262E-03

     total cpu time spent up to now is        5.9 secs

     total energy              =    -491.10072439 Ry
     estimated scf accuracy    <       0.06469876 Ry

     total magnetization       =     3.06 Bohr mag/cell
     absolute magnetization    =     3.63 Bohr mag/cell

     iteration # 14     ecut=    30.00 Ry     beta= 0.70
     Davidson diagonalization with overlap
     ethr =  6.69E-05,  avg # of iterations =  1.5

     negative rho (up, down):  9.766E-03 2.134E-03

     total cpu time spent up to now is        6.2 secs

     total energy              =    -491.10697114 Ry
     estimated scf accuracy    <       0.06195910 Ry

     total magnetization       =     3.10 Bohr mag/cell
     absolute magnetization    =     3.57 Bohr mag/cell

     iteration # 15     ecut=    30.00 Ry     beta= 0.70
     Davidson diagonalization with overlap
     ethr =  6.69E-05,  avg # of iterations =  1.8

     negative rho (up, down):  1.106E-02 2.121E-03

     total cpu time spent up to now is        6.4 secs

     total energy              =    -491.12710110 Ry
     estimated scf accuracy    <       0.05834308 Ry

     total magnetization       =     3.08 Bohr mag/cell
     absolute magnetization    =     3.60 Bohr mag/cell

     iteration # 16     ecut=    30.00 Ry     beta= 0.70
     Davidson diagonalization with overlap
     ethr =  6.69E-05,  avg # of iterations =  1.5

     negative rho (up, down):  9.484E-03 3.679E-03

     total cpu time spent up to now is        6.7 secs

     total energy              =    -491.00015404 Ry
     estimated scf accuracy    <       0.06375913 Ry

     total magnetization       =     3.09 Bohr mag/cell
     absolute magnetization    =     3.66 Bohr mag/cell

     iteration # 17     ecut=    30.00 Ry     beta= 0.70
     Davidson diagonalization with overlap
     ethr =  6.69E-05,  avg # of iterations =  2.5

     negative rho (up, down):  5.315E-03 1.005E-02

     total cpu time spent up to now is        7.0 secs

     total energy              =    -491.00205588 Ry
     estimated scf accuracy    <       0.01896383 Ry

     total magnetization       =     3.05 Bohr mag/cell
     absolute magnetization    =     3.44 Bohr mag/cell

     iteration # 18     ecut=    30.00 Ry     beta= 0.70
     Davidson diagonalization with overlap
     ethr =  5.93E-05,  avg # of iterations =  2.5

     negative rho (up, down):  2.777E-03 2.603E-02

     total cpu time spent up to now is        7.3 secs

     total energy              =    -491.03917968 Ry
     estimated scf accuracy    <       0.02842243 Ry

     total magnetization       =     3.11 Bohr mag/cell
     absolute magnetization    =     3.40 Bohr mag/cell

     iteration # 19     ecut=    30.00 Ry     beta= 0.70
     Davidson diagonalization with overlap
     ethr =  5.93E-05,  avg # of iterations =  2.8

     negative rho (up, down):  2.696E-03 3.154E-02

     total cpu time spent up to now is        7.6 secs

     total energy              =    -491.13792420 Ry
     estimated scf accuracy    <       0.05602676 Ry

     total magnetization       =     3.08 Bohr mag/cell
     absolute magnetization    =     3.46 Bohr mag/cell

     iteration # 20     ecut=    30.00 Ry     beta= 0.70
     Davidson diagonalization with overlap
     ethr =  5.93E-05,  avg # of iterations =  2.0

     negative rho (up, down):  2.481E-03 3.479E-02

     total cpu time spent up to now is        7.9 secs

     total energy              =    -491.12062462 Ry
     estimated scf accuracy    <       0.04796242 Ry

     total magnetization       =     3.08 Bohr mag/cell
     absolute magnetization    =     3.43 Bohr mag/cell

     iteration # 21     ecut=    30.00 Ry     beta= 0.70
     Davidson diagonalization with overlap
     ethr =  5.93E-05,  avg # of iterations =  1.0

     negative rho (up, down):  4.093E-03 2.481E-02

     total cpu time spent up to now is        8.1 secs

     total energy              =    -491.04939204 Ry
     estimated scf accuracy    <       0.04647427 Ry

     total magnetization       =     3.07 Bohr mag/cell
     absolute magnetization    =     3.42 Bohr mag/cell

     iteration # 22     ecut=    30.00 Ry     beta= 0.70
     Davidson diagonalization with overlap
     ethr =  5.93E-05,  avg # of iterations =  2.2

     negative rho (up, down):  5.648E-03 2.096E-02

     total cpu time spent up to now is        8.4 secs

     total energy              =    -491.09842442 Ry
     estimated scf accuracy    <       0.00567313 Ry

     total magnetization       =     3.10 Bohr mag/cell
     absolute magnetization    =     3.55 Bohr mag/cell

     iteration # 23     ecut=    30.00 Ry     beta= 0.70
     Davidson diagonalization with overlap
     ethr =  1.77E-05,  avg # of iterations =  2.5

     negative rho (up, down):  7.380E-03 1.927E-02

     total cpu time spent up to now is        8.7 secs

     total energy              =    -491.12921793 Ry
     estimated scf accuracy    <       0.00323547 Ry

     total magnetization       =     3.10 Bohr mag/cell
     absolute magnetization    =     3.44 Bohr mag/cell

     iteration # 24     ecut=    30.00 Ry     beta= 0.70
     Davidson diagonalization with overlap
     ethr =  1.01E-05,  avg # of iterations =  2.0

     negative rho (up, down):  8.037E-03 1.844E-02

     total cpu time spent up to now is        9.0 secs

     total energy              =    -491.13968209 Ry
     estimated scf accuracy    <       0.00120134 Ry

     total magnetization       =     3.10 Bohr mag/cell
     absolute magnetization    =     3.47 Bohr mag/cell

     iteration # 25     ecut=    30.00 Ry     beta= 0.70
     Davidson diagonalization with overlap
     ethr =  3.75E-06,  avg # of iterations =  2.0

     negative rho (up, down):  9.246E-03 1.957E-02

     total cpu time spent up to now is        9.3 secs

     total energy              =    -491.14118316 Ry
     estimated scf accuracy    <       0.00083425 Ry

     total magnetization       =     3.09 Bohr mag/cell
     absolute magnetization    =     3.49 Bohr mag/cell

     iteration # 26     ecut=    30.00 Ry     beta= 0.70
     Davidson diagonalization with overlap
     ethr =  2.61E-06,  avg # of iterations =  2.0

     negative rho (up, down):  9.230E-03 1.938E-02

     total cpu time spent up to now is        9.6 secs

     total energy              =    -491.14132333 Ry
     estimated scf accuracy    <       0.00030638 Ry

     total magnetization       =     3.08 Bohr mag/cell
     absolute magnetization    =     3.49 Bohr mag/cell

     iteration # 27     ecut=    30.00 Ry     beta= 0.70
     Davidson diagonalization with overlap
     ethr =  9.57E-07,  avg # of iterations =  1.2

     negative rho (up, down):  9.362E-03 1.937E-02

     total cpu time spent up to now is        9.8 secs

     total energy              =    -491.14119868 Ry
     estimated scf accuracy    <       0.00046761 Ry

     total magnetization       =     3.08 Bohr mag/cell
     absolute magnetization    =     3.50 Bohr mag/cell

     iteration # 28     ecut=    30.00 Ry     beta= 0.70
     Davidson diagonalization with overlap
     ethr =  9.57E-07,  avg # of iterations =  2.0

     negative rho (up, down):  9.450E-03 1.933E-02

     total cpu time spent up to now is       10.1 secs

     total energy              =    -491.14098501 Ry
     estimated scf accuracy    <       0.00042788 Ry

     total magnetization       =     3.07 Bohr mag/cell
     absolute magnetization    =     3.49 Bohr mag/cell

     iteration # 29     ecut=    30.00 Ry     beta= 0.70
     Davidson diagonalization with overlap
     ethr =  9.57E-07,  avg # of iterations =  1.2

     negative rho (up, down):  9.091E-03 1.891E-02

     total cpu time spent up to now is       10.4 secs

     total energy              =    -491.14086826 Ry
     estimated scf accuracy    <       0.00048155 Ry

     total magnetization       =     3.07 Bohr mag/cell
     absolute magnetization    =     3.49 Bohr mag/cell

     iteration # 30     ecut=    30.00 Ry     beta= 0.70
     Davidson diagonalization with overlap
     ethr =  9.57E-07,  avg # of iterations =  2.0

     negative rho (up, down):  9.194E-03 1.896E-02

     total cpu time spent up to now is       10.7 secs

     total energy              =    -491.14126574 Ry
     estimated scf accuracy    <       0.00008147 Ry

     total magnetization       =     3.07 Bohr mag/cell
     absolute magnetization    =     3.51 Bohr mag/cell

     iteration # 31     ecut=    30.00 Ry     beta= 0.70
     Davidson diagonalization with overlap
     ethr =  2.55E-07,  avg # of iterations =  2.0

     negative rho (up, down):  9.110E-03 1.907E-02

     total cpu time spent up to now is       10.9 secs

     total energy              =    -491.14104179 Ry
     estimated scf accuracy    <       0.00009283 Ry

     total magnetization       =     3.07 Bohr mag/cell
     absolute magnetization    =     3.52 Bohr mag/cell

     iteration # 32     ecut=    30.00 Ry     beta= 0.70
     Davidson diagonalization with overlap
     ethr =  2.55E-07,  avg # of iterations =  2.0

     negative rho (up, down):  8.476E-03 1.997E-02

     total cpu time spent up to now is       11.2 secs

     total energy              =    -491.13885718 Ry
     estimated scf accuracy    <       0.00007940 Ry

     total magnetization       =     3.07 Bohr mag/cell
     absolute magnetization    =     3.51 Bohr mag/cell

     iteration # 33     ecut=    30.00 Ry     beta= 0.70
     Davidson diagonalization with overlap
     ethr =  2.48E-07,  avg # of iterations =  2.5

     negative rho (up, down):  8.391E-03 2.000E-02

     total cpu time spent up to now is       11.5 secs

     total energy              =    -491.14098932 Ry
     estimated scf accuracy    <       0.00005682 Ry

     total magnetization       =     3.07 Bohr mag/cell
     absolute magnetization    =     3.51 Bohr mag/cell

     iteration # 34     ecut=    30.00 Ry     beta= 0.70
     Davidson diagonalization with overlap
     ethr =  1.78E-07,  avg # of iterations =  2.0

     negative rho (up, down):  8.084E-03 2.000E-02

     total cpu time spent up to now is       11.8 secs

     total energy              =    -491.14088295 Ry
     estimated scf accuracy    <       0.00004583 Ry

     total magnetization       =     3.07 Bohr mag/cell
     absolute magnetization    =     3.51 Bohr mag/cell

     iteration # 35     ecut=    30.00 Ry     beta= 0.70
     Davidson diagonalization with overlap
     ethr =  1.43E-07,  avg # of iterations =  3.8

     negative rho (up, down):  7.753E-03 2.029E-02

     total cpu time spent up to now is       12.1 secs

     total energy              =    -491.14064100 Ry
     estimated scf accuracy    <       0.00007729 Ry

     total magnetization       =     3.07 Bohr mag/cell
     absolute magnetization    =     3.51 Bohr mag/cell

     iteration # 36     ecut=    30.00 Ry     beta= 0.70
     Davidson diagonalization with overlap
     ethr =  1.43E-07,  avg # of iterations =  2.2

     negative rho (up, down):  7.661E-03 2.039E-02

     total cpu time spent up to now is       12.4 secs

     total energy              =    -491.14105074 Ry
     estimated scf accuracy    <       0.00008359 Ry

     total magnetization       =     3.07 Bohr mag/cell
     absolute magnetization    =     3.51 Bohr mag/cell

     iteration # 37     ecut=    30.00 Ry     beta= 0.70
     Davidson diagonalization with overlap
     ethr =  1.43E-07,  avg # of iterations =  1.0

     negative rho (up, down):  7.085E-03 2.117E-02

     total cpu time spent up to now is       12.6 secs

     total energy              =    -491.14004983 Ry
     estimated scf accuracy    <       0.00008442 Ry

     total magnetization       =     3.07 Bohr mag/cell
     absolute magnetization    =     3.51 Bohr mag/cell

     iteration # 38     ecut=    30.00 Ry     beta= 0.70
     Davidson diagonalization with overlap
     ethr =  1.43E-07,  avg # of iterations =  3.2

     negative rho (up, down):  5.079E-03 2.379E-02

     total cpu time spent up to now is       12.9 secs

     total energy              =    -491.13344366 Ry
     estimated scf accuracy    <       0.00006090 Ry

     total magnetization       =     3.07 Bohr mag/cell
     absolute magnetization    =     3.52 Bohr mag/cell

     iteration # 39     ecut=    30.00 Ry     beta= 0.70
     Davidson diagonalization with overlap
     ethr =  1.43E-07,  avg # of iterations =  4.8

     negative rho (up, down):  6.947E-03 2.177E-02

     total cpu time spent up to now is       13.2 secs

     total energy              =    -491.12579588 Ry
     estimated scf accuracy    <       0.00066614 Ry

     total magnetization       =     3.06 Bohr mag/cell
     absolute magnetization    =     3.53 Bohr mag/cell

     iteration # 40     ecut=    30.00 Ry     beta= 0.70
     Davidson diagonalization with overlap
     ethr =  1.43E-07,  avg # of iterations =  5.0

     negative rho (up, down):  7.166E-03 2.139E-02

     total cpu time spent up to now is       13.6 secs

     total energy              =    -491.13987953 Ry
     estimated scf accuracy    <       0.00012793 Ry

     total magnetization       =     3.07 Bohr mag/cell
     absolute magnetization    =     3.51 Bohr mag/cell

     iteration # 41     ecut=    30.00 Ry     beta= 0.70
     Davidson diagonalization with overlap
     ethr =  1.43E-07,  avg # of iterations =  2.5

     negative rho (up, down):  7.249E-03 2.111E-02

     total cpu time spent up to now is       13.8 secs

     total energy              =    -491.14090370 Ry
     estimated scf accuracy    <       0.00002431 Ry

     total magnetization       =     3.07 Bohr mag/cell
     absolute magnetization    =     3.51 Bohr mag/cell

     iteration # 42     ecut=    30.00 Ry     beta= 0.70
     Davidson diagonalization with overlap
     ethr =  7.60E-08,  avg # of iterations =  2.0

     negative rho (up, down):  6.564E-03 2.187E-02

     total cpu time spent up to now is       14.1 secs

     total energy              =    -491.14034752 Ry
     estimated scf accuracy    <       0.00003992 Ry

     total magnetization       =     3.07 Bohr mag/cell
     absolute magnetization    =     3.52 Bohr mag/cell

     iteration # 43     ecut=    30.00 Ry     beta= 0.70
     Davidson diagonalization with overlap
     ethr =  7.60E-08,  avg # of iterations =  4.0

     negative rho (up, down):  6.761E-03 2.166E-02

     total cpu time spent up to now is       14.4 secs

     total energy              =    -491.14074849 Ry
     estimated scf accuracy    <       0.00011670 Ry

     total magnetization       =     3.07 Bohr mag/cell
     absolute magnetization    =     3.52 Bohr mag/cell

     iteration # 44     ecut=    30.00 Ry     beta= 0.70
     Davidson diagonalization with overlap
     ethr =  7.60E-08,  avg # of iterations =  3.0

     negative rho (up, down):  6.690E-03 2.174E-02

     total cpu time spent up to now is       14.7 secs

     total energy              =    -491.14098879 Ry
     estimated scf accuracy    <       0.00006264 Ry

     total magnetization       =     3.07 Bohr mag/cell
     absolute magnetization    =     3.52 Bohr mag/cell

     iteration # 45     ecut=    30.00 Ry     beta= 0.70
     Davidson diagonalization with overlap
     ethr =  7.60E-08,  avg # of iterations =  2.0

     negative rho (up, down):  7.022E-03 2.130E-02

     total cpu time spent up to now is       15.0 secs

     total energy              =    -491.14045079 Ry
     estimated scf accuracy    <       0.00007105 Ry

     total magnetization       =     3.07 Bohr mag/cell
     absolute magnetization    =     3.52 Bohr mag/cell

     iteration # 46     ecut=    30.00 Ry     beta= 0.70
     Davidson diagonalization with overlap
     ethr =  7.60E-08,  avg # of iterations =  3.0

     negative rho (up, down):  7.291E-03 2.094E-02

     total cpu time spent up to now is       15.3 secs

     total energy              =    -491.14078779 Ry
     estimated scf accuracy    <       0.00004626 Ry

     total magnetization       =     3.07 Bohr mag/cell
     absolute magnetization    =     3.52 Bohr mag/cell

     iteration # 47     ecut=    30.00 Ry     beta= 0.70
     Davidson diagonalization with overlap
     ethr =  7.60E-08,  avg # of iterations =  2.5

     negative rho (up, down):  7.491E-03 2.063E-02

     total cpu time spent up to now is       15.6 secs

     total energy              =    -491.14105201 Ry
     estimated scf accuracy    <       0.00001505 Ry

     total magnetization       =     3.07 Bohr mag/cell
     absolute magnetization    =     3.51 Bohr mag/cell

     iteration # 48     ecut=    30.00 Ry     beta= 0.70
     Davidson diagonalization with overlap
     ethr =  4.70E-08,  avg # of iterations =  2.5

     negative rho (up, down):  6.808E-03 2.151E-02

     total cpu time spent up to now is       15.9 secs

     total energy              =    -491.14002115 Ry
     estimated scf accuracy    <       0.00001273 Ry

     total magnetization       =     3.07 Bohr mag/cell
     absolute magnetization    =     3.51 Bohr mag/cell

     iteration # 49     ecut=    30.00 Ry     beta= 0.70
     Davidson diagonalization with overlap
     ethr =  3.98E-08,  avg # of iterations =  4.2

     negative rho (up, down):  6.847E-03 2.147E-02

     total cpu time spent up to now is       16.2 secs

     total energy              =    -491.14103834 Ry
     estimated scf accuracy    <       0.00005843 Ry

     total magnetization       =     3.07 Bohr mag/cell
     absolute magnetization    =     3.52 Bohr mag/cell

     iteration # 50     ecut=    30.00 Ry     beta= 0.70
     Davidson diagonalization with overlap
     ethr =  3.98E-08,  avg # of iterations =  2.8

     negative rho (up, down):  7.351E-03 2.075E-02

     total cpu time spent up to now is       16.5 secs

     total energy              =    -491.14024095 Ry
     estimated scf accuracy    <       0.00001873 Ry

     total magnetization       =     3.07 Bohr mag/cell
     absolute magnetization    =     3.52 Bohr mag/cell

     iteration # 51     ecut=    30.00 Ry     beta= 0.70
     Davidson diagonalization with overlap
     ethr =  3.98E-08,  avg # of iterations =  4.0

     negative rho (up, down):  7.551E-03 2.046E-02

     total cpu time spent up to now is       16.8 secs

     total energy              =    -491.14108760 Ry
     estimated scf accuracy    <       0.00000277 Ry

     total magnetization       =     3.07 Bohr mag/cell
     absolute magnetization    =     3.51 Bohr mag/cell

     iteration # 52     ecut=    30.00 Ry     beta= 0.70
     Davidson diagonalization with overlap
     ethr =  8.67E-09,  avg # of iterations =  2.8

     negative rho (up, down):  7.429E-03 2.063E-02

     total cpu time spent up to now is       17.1 secs

     total energy              =    -491.14108892 Ry
     estimated scf accuracy    <       0.00000443 Ry

     total magnetization       =     3.07 Bohr mag/cell
     absolute magnetization    =     3.51 Bohr mag/cell

     iteration # 53     ecut=    30.00 Ry     beta= 0.70
     Davidson diagonalization with overlap
     ethr =  8.67E-09,  avg # of iterations =  3.2

     negative rho (up, down):  7.373E-03 2.069E-02

     total cpu time spent up to now is       17.4 secs

     total energy              =    -491.14111810 Ry
     estimated scf accuracy    <       0.00000315 Ry

     total magnetization       =     3.07 Bohr mag/cell
     absolute magnetization    =     3.51 Bohr mag/cell

     iteration # 54     ecut=    30.00 Ry     beta= 0.70
     Davidson diagonalization with overlap
     ethr =  8.67E-09,  avg # of iterations =  2.0

     negative rho (up, down):  7.250E-03 2.084E-02

     total cpu time spent up to now is       17.7 secs

     total energy              =    -491.14106400 Ry
     estimated scf accuracy    <       0.00000197 Ry

     total magnetization       =     3.07 Bohr mag/cell
     absolute magnetization    =     3.51 Bohr mag/cell

     iteration # 55     ecut=    30.00 Ry     beta= 0.70
     Davidson diagonalization with overlap
     ethr =  6.16E-09,  avg # of iterations =  3.2

     negative rho (up, down):  7.216E-03 2.086E-02

     Magnetic moment per site  (integrated on atomic sphere of radius R)
     atom   1 (R=0.327)  charge= 13.5278  magn=  1.6180
     atom   2 (R=0.327)  charge= 13.5278  magn=  1.6180

     total cpu time spent up to now is       18.0 secs

     End of self-consistent calculation

 ------ SPIN UP ------------


          k = 0.0000 0.0000 0.0000 (   525 PWs)   bands (ev):

   -75.9985 -75.7342 -40.7724 -40.7724 -40.7119 -40.4791 -40.4791 -40.1010
     7.7928  10.2996  12.1751  12.1751  12.2720  12.2720  14.1160  14.4919
    14.4919  16.2584  16.2584  17.4920

          k = 0.0000-0.5774 0.0000 (   476 PWs)   bands (ev):

   -75.8002 -75.7344 -40.3616 -40.1927 -40.1801 -39.9796 -39.7784 -39.7265
    10.7165  11.9670  12.3007  12.8035  14.2246  15.1739  15.9608  16.1540
    16.3406  17.4032  18.3998  19.4212

 ------ SPIN DOWN ----------


          k = 0.0000 0.0000 0.0000 (   525 PWs)   bands (ev):

   -73.9101 -73.6288 -38.8493 -38.6408 -38.6408 -38.3237 -38.3237 -38.1952
     7.7657  11.1946  13.4294  13.4294  14.1961  14.1961  15.0126  16.7608
    16.7608  17.8565  17.8565  18.0508

          k = 0.0000-0.5774 0.0000 (   476 PWs)   bands (ev):

   -73.7073 -73.6329 -38.3951 -38.1756 -38.0663 -37.9376 -37.7441 -37.6237
    11.9117  12.6413  13.2311  14.1089  14.8058  16.2783  17.9999  18.2546
    18.4870  18.8930  19.9414  20.6336

     the Fermi energy is    16.7279 ev

!    total energy              =    -491.14113640 Ry
     estimated scf accuracy    <       0.00000041 Ry
     smearing contrib. (-TS)   =       0.00073496 Ry
     internal energy E=F+TS    =    -491.14187137 Ry

     The total energy is F=E-TS. E is the sum of the following terms:
     one-electron contribution =    -296.19489177 Ry
     hartree contribution      =     162.49288671 Ry
     xc contribution           =     -55.07913645 Ry
     ewald contribution        =    -302.36072986 Ry

     total magnetization       =     3.07 Bohr mag/cell
     absolute magnetization    =     3.51 Bohr mag/cell

     convergence has been achieved in  55 iterations

     negative rho (up, down):  7.216E-03 2.086E-02

     Forces acting on atoms (cartesian axes, Ry/au):

     atom    1 type  1   force =     0.00000000    0.00000000   -0.14232456
     atom    2 type  1   force =    -0.00000000    0.00000000    0.14232456

     Total force =     0.201277     Total SCF correction =     0.000099


     Computing stress (Cartesian axis) and pressure


     negative rho (up, down):  7.216E-03 2.086E-02
          total   stress  (Ry/bohr**3)                   (kbar)     P=   -15566.25
  -0.10531373   0.00000000   0.00000000       -15492.18        0.00        0.00
   0.00000000  -0.10531373   0.00000000            0.00   -15492.18        0.00
  -0.00000000  -0.00000000  -0.10682417           -0.00       -0.00   -15714.38


     BFGS Geometry Optimization
     Energy error            =      0.0E+00 Ry
     Gradient error          =      1.4E-01 Ry/Bohr
     Cell gradient error     =      1.6E+04 kbar

     number of scf cycles    =   1
     number of bfgs steps    =   0

     enthalpy           new  =    -491.1411364014 Ry

     new trust radius        =       0.5000000000 bohr
ibrav =      4
 celldm(1) =      4.07314439
 celldm(3) =      1.62767051
Input lattice vectors:
     0.81462888     0.00000000    -0.00000000
    -0.40731444     0.70548930     0.00000000
     0.00000000     0.00000000     1.32594740
New lattice vectors in INITIAL alat:
     0.81462888     0.00000000     0.00000000
    -0.40731444     0.70548930     0.00000000
     0.00000000     0.00000000     1.32594740
New lattice vectors in NEW alat (for information only):
     1.00000000     0.00000000     0.00000000
    -0.50000000     0.86602540     0.00000000
     0.00000000     0.00000000     1.62767051
Discrepancy in bohr =     0.000000    0.000000    0.000000
     new conv_thr            =       0.0000010000 Ry

     new unit-cell volume =     95.25473 a.u.^3 (    14.11529 Ang^3 )
     density =     13.13981 g/cm^3

CELL_PARAMETERS (alat=  5.00000000)
   0.814628879   0.000000000   0.000000000
  -0.407314439   0.705489304   0.000000000
   0.000000000   0.000000000   1.325947400

ATOMIC_POSITIONS (crystal)
Fe            0.0000000000        0.0000000000       -0.0012272717
Fe            0.3333333330       -0.3333333330        0.3345606047



     Writing config-only to output data dir ./temp/fe.save/
     NEW-OLD atomic charge density approx. for the potential

     Check: negative core charge=   -0.000003

     negative rho (up, down):  1.955E+00 1.957E+00
     extrapolated charge    4.61390, renormalised to   32.00000
     Generating pointlists ...
     new r_m :   0.2672 (alat units)  1.3358 (a.u.) for type    1

     total cpu time spent up to now is       21.3 secs

     Self-consistent Calculation

     iteration #  1     ecut=    30.00 Ry     beta= 0.70
     Davidson diagonalization with overlap
     ethr =  1.00E-06,  avg # of iterations = 14.8

     negative rho (up, down):  3.297E+00 3.611E+00

     total cpu time spent up to now is       21.8 secs

     total energy              =    -380.99804408 Ry
     estimated scf accuracy    <    1223.31392962 Ry

     total magnetization       =     3.87 Bohr mag/cell
     absolute magnetization    =     3.88 Bohr mag/cell

     iteration #  2     ecut=    30.00 Ry     beta= 0.70
     Davidson diagonalization with overlap
     ethr =  1.00E-02,  avg # of iterations =  7.0

     negative rho (up, down):  8.978E+00 9.328E+00

     total cpu time spent up to now is       22.1 secs

     total energy              =     580.99788054 Ry
     estimated scf accuracy    <    9449.43064566 Ry

     total magnetization       =     2.77 Bohr mag/cell
     absolute magnetization    =     2.78 Bohr mag/cell

     iteration #  3     ecut=    30.00 Ry     beta= 0.70
     Davidson diagonalization with overlap
     ethr =  1.00E-02,  avg # of iterations =  7.5

     negative rho (up, down):  6.285E+00 6.461E+00

     total cpu time spent up to now is       22.5 secs

     total energy              =      56.11116484 Ry
     estimated scf accuracy    <    8756.81688872 Ry

     total magnetization       =     0.45 Bohr mag/cell
     absolute magnetization    =     0.60 Bohr mag/cell

     iteration #  4     ecut=    30.00 Ry     beta= 0.70
     Davidson diagonalization with overlap
     ethr =  1.00E-02,  avg # of iterations =  7.0

     negative rho (up, down):  5.973E+00 6.033E+00

     total cpu time spent up to now is       22.8 secs

     total energy              =      11.21783065 Ry
     estimated scf accuracy    <    6728.17102289 Ry

     total magnetization       =     0.47 Bohr mag/cell
     absolute magnetization    =     0.78 Bohr mag/cell

     iteration #  5     ecut=    30.00 Ry     beta= 0.70
     Davidson diagonalization with overlap
     ethr =  1.00E-02,  avg # of iterations =  6.2

     negative rho (up, down):  6.251E+00 6.355E+00

     total cpu time spent up to now is       23.1 secs

     total energy              =    -191.96435750 Ry
     estimated scf accuracy    <    7081.74764971 Ry

     total magnetization       =     0.01 Bohr mag/cell
     absolute magnetization    =     0.52 Bohr mag/cell

     iteration #  6     ecut=    30.00 Ry     beta= 0.70
     Davidson diagonalization with overlap
     ethr =  1.00E-02,  avg # of iterations =  7.8

     negative rho (up, down):  2.328E+00 1.027E+00

     total cpu time spent up to now is       23.5 secs

     total energy              =    -476.02844612 Ry
     estimated scf accuracy    <    1254.89459772 Ry

     total magnetization       =     2.00 Bohr mag/cell
     absolute magnetization    =    35.52 Bohr mag/cell

     iteration #  7     ecut=    30.00 Ry     beta= 0.70
     Davidson diagonalization with overlap
     ethr =  1.00E-02,  avg # of iterations =  5.0

     negative rho (up, down):  1.090E+00 9.645E-01

     total cpu time spent up to now is       23.8 secs

     total energy              =    -504.60487374 Ry
     estimated scf accuracy    <      11.33262800 Ry

     total magnetization       =    -0.56 Bohr mag/cell
     absolute magnetization    =     0.85 Bohr mag/cell

     iteration #  8     ecut=    30.00 Ry     beta= 0.70
     Davidson diagonalization with overlap
     ethr =  1.00E-02,  avg # of iterations =  2.5

     negative rho (up, down):  1.137E+00 9.902E-01

     total cpu time spent up to now is       24.0 secs

     total energy              =    -504.78849288 Ry
     estimated scf accuracy    <      36.57709174 Ry

     total magnetization       =     1.81 Bohr mag/cell
     absolute magnetization    =     4.92 Bohr mag/cell

     iteration #  9     ecut=    30.00 Ry     beta= 0.70
     Davidson diagonalization with overlap
     ethr =  1.00E-02,  avg # of iterations =  2.0

     negative rho (up, down):  1.009E+00 9.771E-01

     total cpu time spent up to now is       24.3 secs

     total energy              =    -504.94222026 Ry
     estimated scf accuracy    <      14.10529005 Ry

     total magnetization       =    -0.20 Bohr mag/cell
     absolute magnetization    =     1.30 Bohr mag/cell

     iteration # 10     ecut=    30.00 Ry     beta= 0.70
     Davidson diagonalization with overlap
     ethr =  1.00E-02,  avg # of iterations =  1.8

     negative rho (up, down):  2.956E+00 1.214E+00

     total cpu time spent up to now is       24.6 secs

     total energy              =    -507.97859285 Ry
     estimated scf accuracy    <      11.47874867 Ry

     total magnetization       =    -0.46 Bohr mag/cell
     absolute magnetization    =     1.00 Bohr mag/cell

     iteration # 11     ecut=    30.00 Ry     beta= 0.70
     Davidson diagonalization with overlap
     ethr =  1.00E-02,  avg # of iterations =  6.5

     negative rho (up, down):  1.446E+01 7.815E+00

     total cpu time spent up to now is       24.9 secs

     total energy              =    -697.74615396 Ry
     estimated scf accuracy    <    7100.17283936 Ry

     total magnetization       =    -1.50 Bohr mag/cell
     absolute magnetization    =     2.05 Bohr mag/cell

     iteration # 12     ecut=    30.00 Ry     beta= 0.70
     Davidson diagonalization with overlap
     ethr =  1.00E-02,  avg # of iterations =  3.2

     negative rho (up, down):  1.894E+01 1.060E+01

     total cpu time spent up to now is       25.2 secs

     total energy              =    -773.01734374 Ry
     estimated scf accuracy    <    6994.17179531 Ry

     total magnetization       =    -2.00 Bohr mag/cell
     absolute magnetization    =     2.56 Bohr mag/cell

     iteration # 13     ecut=    30.00 Ry     beta= 0.70
     Davidson diagonalization with overlap
     ethr =  1.00E-02,  avg # of iterations =  2.2

     negative rho (up, down):  7.496E+00 2.146E+01

     total cpu time spent up to now is       25.5 secs

     total energy              =      37.77015037 Ry
     estimated scf accuracy    <    7473.00206428 Ry

     total magnetization       =    -2.00 Bohr mag/cell
     absolute magnetization    =     2.25 Bohr mag/cell

     iteration # 14     ecut=    30.00 Ry     beta= 0.70
     Davidson diagonalization with overlap
     ethr =  1.00E-02,  avg # of iterations =  8.2

     negative rho (up, down):  3.619E+00 4.649E+00

     total cpu time spent up to now is       25.9 secs

     total energy              =    -172.78925111 Ry
     estimated scf accuracy    <    7442.61649256 Ry

     total magnetization       =     4.00 Bohr mag/cell
     absolute magnetization    =     4.91 Bohr mag/cell

     iteration # 15     ecut=    30.00 Ry     beta= 0.70
     Davidson diagonalization with overlap
     ethr =  1.00E-02,  avg # of iterations =  8.0

     negative rho (up, down):  1.778E+00 2.379E+00

     total cpu time spent up to now is       26.2 secs

     total energy              =    -475.75588010 Ry
     estimated scf accuracy    <    1565.85742005 Ry

     total magnetization       =    -0.01 Bohr mag/cell
     absolute magnetization    =     8.12 Bohr mag/cell

     iteration # 16     ecut=    30.00 Ry     beta= 0.70
     Davidson diagonalization with overlap
     ethr =  1.00E-02,  avg # of iterations =  8.0

     negative rho (up, down):  9.371E-01 1.119E+00

     total cpu time spent up to now is       26.5 secs

     total energy              =    -503.18716699 Ry
     estimated scf accuracy    <      14.53629274 Ry

     total magnetization       =     0.63 Bohr mag/cell
     absolute magnetization    =     1.60 Bohr mag/cell

     iteration # 17     ecut=    30.00 Ry     beta= 0.70
     Davidson diagonalization with overlap
     ethr =  1.00E-02,  avg # of iterations =  2.0

     negative rho (up, down):  1.079E+00 1.010E+00

     total cpu time spent up to now is       26.8 secs

     total energy              =    -506.03318633 Ry
     estimated scf accuracy    <      11.01617426 Ry

     total magnetization       =    -0.50 Bohr mag/cell
     absolute magnetization    =     0.76 Bohr mag/cell

     iteration # 18     ecut=    30.00 Ry     beta= 0.70
     Davidson diagonalization with overlap
     ethr =  1.00E-02,  avg # of iterations =  2.2

     negative rho (up, down):  1.158E+00 1.099E+00

     total cpu time spent up to now is       27.1 secs

     total energy              =    -507.96109070 Ry
     estimated scf accuracy    <      12.74821401 Ry

     total magnetization       =    -1.00 Bohr mag/cell
     absolute magnetization    =     1.06 Bohr mag/cell

     iteration # 19     ecut=    30.00 Ry     beta= 0.70
     Davidson diagonalization with overlap
     ethr =  1.00E-02,  avg # of iterations =  3.2

     negative rho (up, down):  1.221E+00 1.183E+00

     total cpu time spent up to now is       27.3 secs

     total energy              =    -510.71809155 Ry
     estimated scf accuracy    <      31.58552996 Ry

     total magnetization       =    -0.84 Bohr mag/cell
     absolute magnetization    =     3.29 Bohr mag/cell

     iteration # 20     ecut=    30.00 Ry     beta= 0.70
     Davidson diagonalization with overlap
     ethr =  1.00E-02,  avg # of iterations =  3.8

     negative rho (up, down):  1.391E+00 2.178E+00

     total cpu time spent up to now is       27.6 secs

     WARNING: integrated charge=    31.99981195, expected=    32.00000000

     total energy              =    -501.02902414 Ry
     estimated scf accuracy    <     279.75782558 Ry

     total magnetization       =    -1.51 Bohr mag/cell
     absolute magnetization    =    16.36 Bohr mag/cell

     iteration # 21     ecut=    30.00 Ry     beta= 0.70
     Davidson diagonalization with overlap
     ethr =  1.00E-02,  avg # of iterations =  3.8

     negative rho (up, down):  9.293E-01 1.045E+00

     total cpu time spent up to now is       27.9 secs

     WARNING: integrated charge=    31.99946386, expected=    32.00000000

     total energy              =    -504.32651950 Ry
     estimated scf accuracy    <      16.69003289 Ry

     total magnetization       =    -1.02 Bohr mag/cell
     absolute magnetization    =     1.24 Bohr mag/cell

     iteration # 22     ecut=    30.00 Ry     beta= 0.70
     Davidson diagonalization with overlap
     ethr =  1.00E-02,  avg # of iterations =  2.8

     negative rho (up, down):  3.254E-01 2.848E-01

     total cpu time spent up to now is       28.2 secs

     WARNING: integrated charge=    32.00128640, expected=    32.00000000

     total energy              =    -495.68457148 Ry
     estimated scf accuracy    <      11.01167124 Ry

     total magnetization       =    -1.05 Bohr mag/cell
     absolute magnetization    =     1.06 Bohr mag/cell

     iteration # 23     ecut=    30.00 Ry     beta= 0.70
     Davidson diagonalization with overlap
     ethr =  1.00E-02,  avg # of iterations =  4.8

     negative rho (up, down):  1.914E-02 1.271E+00

     total cpu time spent up to now is       28.5 secs

     WARNING: integrated charge=    32.00105767, expected=    32.00000000

     total energy              =    -485.96276344 Ry
     estimated scf accuracy    <     435.39692197 Ry

     total magnetization       =    -2.01 Bohr mag/cell
     absolute magnetization    =    27.13 Bohr mag/cell

     iteration # 24     ecut=    30.00 Ry     beta= 0.70
     Davidson diagonalization with overlap
     ethr =  1.00E-02,  avg # of iterations =  3.8

     negative rho (up, down):  3.120E-02 1.324E-01

     total cpu time spent up to now is       28.8 secs

     WARNING: integrated charge=    32.00141645, expected=    32.00000000

     total energy              =    -494.29862964 Ry
     estimated scf accuracy    <       3.60197076 Ry

     total magnetization       =     0.51 Bohr mag/cell
     absolute magnetization    =     3.44 Bohr mag/cell

     iteration # 25     ecut=    30.00 Ry     beta= 0.70
     Davidson diagonalization with overlap
     ethr =  1.00E-02,  avg # of iterations =  1.2

     negative rho (up, down):  3.663E-02 5.126E-03

     total cpu time spent up to now is       29.1 secs

     WARNING: integrated charge=    32.00157008, expected=    32.00000000

     total energy              =    -494.47089085 Ry
     estimated scf accuracy    <       1.65214945 Ry

     total magnetization       =     0.51 Bohr mag/cell
     absolute magnetization    =     2.60 Bohr mag/cell

     iteration # 26     ecut=    30.00 Ry     beta= 0.70
     Davidson diagonalization with overlap
     ethr =  5.16E-03,  avg # of iterations =  1.0

     negative rho (up, down):  3.498E-02 1.272E-05

     total cpu time spent up to now is       29.4 secs

     WARNING: integrated charge=    32.00144957, expected=    32.00000000

     total energy              =    -494.51586472 Ry
     estimated scf accuracy    <       0.94837896 Ry

     total magnetization       =     0.55 Bohr mag/cell
     absolute magnetization    =     2.07 Bohr mag/cell

     iteration # 27     ecut=    30.00 Ry     beta= 0.70
     Davidson diagonalization with overlap
     ethr =  2.96E-03,  avg # of iterations =  1.2

     negative rho (up, down):  2.793E-02 0.000E+00

     total cpu time spent up to now is       29.6 secs

     WARNING: integrated charge=    32.00137995, expected=    32.00000000

     total energy              =    -494.55196090 Ry
     estimated scf accuracy    <       0.78602393 Ry

     total magnetization       =     0.47 Bohr mag/cell
     absolute magnetization    =     1.98 Bohr mag/cell

     iteration # 28     ecut=    30.00 Ry     beta= 0.70
     Davidson diagonalization with overlap
     ethr =  2.46E-03,  avg # of iterations =  3.0

     negative rho (up, down):  1.878E-02 0.000E+00

     total cpu time spent up to now is       29.9 secs

     WARNING: integrated charge=    32.00066767, expected=    32.00000000

     total energy              =    -494.51822222 Ry
     estimated scf accuracy    <       0.70832997 Ry

     total magnetization       =     1.27 Bohr mag/cell
     absolute magnetization    =     2.58 Bohr mag/cell

     iteration # 29     ecut=    30.00 Ry     beta= 0.70
     Davidson diagonalization with overlap
     ethr =  2.21E-03,  avg # of iterations =  1.8

     negative rho (up, down):  1.623E-02 0.000E+00

     total cpu time spent up to now is       30.2 secs

     WARNING: integrated charge=    32.00012204, expected=    32.00000000

     total energy              =    -494.58206629 Ry
     estimated scf accuracy    <       0.36449174 Ry

     total magnetization       =     0.53 Bohr mag/cell
     absolute magnetization    =     1.94 Bohr mag/cell

     iteration # 30     ecut=    30.00 Ry     beta= 0.70
     Davidson diagonalization with overlap
     ethr =  1.14E-03,  avg # of iterations =  1.0

     negative rho (up, down):  1.216E-02 0.000E+00

     total cpu time spent up to now is       30.5 secs

     WARNING: integrated charge=    31.99997942, expected=    32.00000000

     total energy              =    -494.60609535 Ry
     estimated scf accuracy    <       0.30864368 Ry

     total magnetization       =     0.43 Bohr mag/cell
     absolute magnetization    =     1.79 Bohr mag/cell

     iteration # 31     ecut=    30.00 Ry     beta= 0.70
     Davidson diagonalization with overlap
     ethr =  9.65E-04,  avg # of iterations =  1.0

     negative rho (up, down):  9.188E-03 0.000E+00

     total cpu time spent up to now is       30.8 secs

     WARNING: integrated charge=    31.99997253, expected=    32.00000000

     total energy              =    -494.61523146 Ry
     estimated scf accuracy    <       0.32183342 Ry

     total magnetization       =     0.40 Bohr mag/cell
     absolute magnetization    =     1.73 Bohr mag/cell

     iteration # 32     ecut=    30.00 Ry     beta= 0.70
     Davidson diagonalization with overlap
     ethr =  9.65E-04,  avg # of iterations =  1.0

     negative rho (up, down):  3.445E-02 0.000E+00

     total cpu time spent up to now is       31.0 secs

     WARNING: integrated charge=    31.99993501, expected=    32.00000000

     total energy              =    -494.49787777 Ry
     estimated scf accuracy    <       0.34489596 Ry

     total magnetization       =     0.39 Bohr mag/cell
     absolute magnetization    =     1.81 Bohr mag/cell

     iteration # 33     ecut=    30.00 Ry     beta= 0.70
     Davidson diagonalization with overlap
     ethr =  9.65E-04,  avg # of iterations =  2.0

     negative rho (up, down):  8.250E-02 8.378E-05

     total cpu time spent up to now is       31.3 secs

     WARNING: integrated charge=    31.99986991, expected=    32.00000000

     total energy              =    -494.41992455 Ry
     estimated scf accuracy    <       0.26331010 Ry

     total magnetization       =    -0.20 Bohr mag/cell
     absolute magnetization    =     1.86 Bohr mag/cell

     iteration # 34     ecut=    30.00 Ry     beta= 0.70
     Davidson diagonalization with overlap
     ethr =  8.23E-04,  avg # of iterations =  2.0

     negative rho (up, down):  8.458E-02 3.627E-04

     total cpu time spent up to now is       31.6 secs

     WARNING: integrated charge=    31.99988693, expected=    32.00000000

     total energy              =    -494.44667702 Ry
     estimated scf accuracy    <       0.24389602 Ry

     total magnetization       =    -1.22 Bohr mag/cell
     absolute magnetization    =     2.56 Bohr mag/cell

     iteration # 35     ecut=    30.00 Ry     beta= 0.70
     Davidson diagonalization with overlap
     ethr =  7.62E-04,  avg # of iterations =  1.0

     negative rho (up, down):  1.715E-01 3.167E-03

     total cpu time spent up to now is       31.9 secs

     WARNING: integrated charge=    31.99981457, expected=    32.00000000

     total energy              =    -494.37809806 Ry
     estimated scf accuracy    <       0.22793965 Ry

     total magnetization       =    -1.02 Bohr mag/cell
     absolute magnetization    =     2.42 Bohr mag/cell

     iteration # 36     ecut=    30.00 Ry     beta= 0.70
     Davidson diagonalization with overlap
     ethr =  7.12E-04,  avg # of iterations =  2.0

     negative rho (up, down):  3.230E-03 0.000E+00

     total cpu time spent up to now is       32.2 secs

     WARNING: integrated charge=    31.99991721, expected=    32.00000000

     total energy              =    -494.35976864 Ry
     estimated scf accuracy    <       0.60548178 Ry

     total magnetization       =    -2.01 Bohr mag/cell
     absolute magnetization    =     3.07 Bohr mag/cell

     iteration # 37     ecut=    30.00 Ry     beta= 0.70
     Davidson diagonalization with overlap
     ethr =  7.12E-04,  avg # of iterations =  2.0

     negative rho (up, down):  3.407E-03 0.000E+00

     total cpu time spent up to now is       32.4 secs

     WARNING: integrated charge=    31.99991956, expected=    32.00000000

     total energy              =    -494.56408544 Ry
     estimated scf accuracy    <       0.15666667 Ry

     total magnetization       =     1.72 Bohr mag/cell
     absolute magnetization    =     2.23 Bohr mag/cell

     iteration # 38     ecut=    30.00 Ry     beta= 0.70
     Davidson diagonalization with overlap
     ethr =  4.90E-04,  avg # of iterations =  1.0

     negative rho (up, down):  4.318E-03 0.000E+00

     total cpu time spent up to now is       32.7 secs

     WARNING: integrated charge=    31.99991850, expected=    32.00000000

     total energy              =    -494.56504598 Ry
     estimated scf accuracy    <       0.15246859 Ry

     total magnetization       =     1.80 Bohr mag/cell
     absolute magnetization    =     2.27 Bohr mag/cell

     iteration # 39     ecut=    30.00 Ry     beta= 0.70
     Davidson diagonalization with overlap
     ethr =  4.76E-04,  avg # of iterations =  2.5

     negative rho (up, down):  3.772E-02 2.913E-03

     total cpu time spent up to now is       33.0 secs

     total energy              =    -494.39363551 Ry
     estimated scf accuracy    <       0.15592178 Ry

     total magnetization       =     1.78 Bohr mag/cell
     absolute magnetization    =     2.26 Bohr mag/cell

     iteration # 40     ecut=    30.00 Ry     beta= 0.70
     Davidson diagonalization with overlap
     ethr =  4.76E-04,  avg # of iterations =  2.0

     negative rho (up, down):  1.232E-01 3.008E-02

     total cpu time spent up to now is       33.3 secs

     WARNING: integrated charge=    31.99999182, expected=    32.00000000

     total energy              =    -494.45002660 Ry
     estimated scf accuracy    <       0.18752282 Ry

     total magnetization       =     2.01 Bohr mag/cell
     absolute magnetization    =     2.28 Bohr mag/cell

     iteration # 41     ecut=    30.00 Ry     beta= 0.70
     Davidson diagonalization with overlap
     ethr =  4.76E-04,  avg # of iterations =  2.0

     negative rho (up, down):  7.627E-02 3.188E-03

     total cpu time spent up to now is       33.6 secs

     WARNING: integrated charge=    32.00000442, expected=    32.00000000

     total energy              =    -494.31906168 Ry
     estimated scf accuracy    <       0.98976316 Ry

     total magnetization       =     2.02 Bohr mag/cell
     absolute magnetization    =     2.42 Bohr mag/cell

     iteration # 42     ecut=    30.00 Ry     beta= 0.70
     Davidson diagonalization with overlap
     ethr =  4.76E-04,  avg # of iterations =  3.2

     negative rho (up, down):  5.011E-02 0.000E+00

     total cpu time spent up to now is       33.8 secs

     WARNING: integrated charge=    32.00001140, expected=    32.00000000

     total energy              =    -494.49809720 Ry
     estimated scf accuracy    <       0.21391244 Ry

     total magnetization       =     0.51 Bohr mag/cell
     absolute magnetization    =     1.36 Bohr mag/cell

     iteration # 43     ecut=    30.00 Ry     beta= 0.70
     Davidson diagonalization with overlap
     ethr =  4.76E-04,  avg # of iterations =  1.5

     negative rho (up, down):  3.352E-02 0.000E+00

     total cpu time spent up to now is       34.1 secs

     WARNING: integrated charge=    32.00003304, expected=    32.00000000

     total energy              =    -494.53581285 Ry
     estimated scf accuracy    <       0.21047625 Ry

     total magnetization       =    -0.43 Bohr mag/cell
     absolute magnetization    =     1.58 Bohr mag/cell

     iteration # 44     ecut=    30.00 Ry     beta= 0.70
     Davidson diagonalization with overlap
     ethr =  4.76E-04,  avg # of iterations =  1.2

     negative rho (up, down):  2.342E-02 0.000E+00

     total cpu time spent up to now is       34.4 secs

     WARNING: integrated charge=    32.00001055, expected=    32.00000000

     total energy              =    -494.55583516 Ry
     estimated scf accuracy    <       0.22160245 Ry

     total magnetization       =     0.36 Bohr mag/cell
     absolute magnetization    =     1.68 Bohr mag/cell

     iteration # 45     ecut=    30.00 Ry     beta= 0.70
     Davidson diagonalization with overlap
     ethr =  4.76E-04,  avg # of iterations =  1.5

     negative rho (up, down):  2.563E-02 0.000E+00

     total cpu time spent up to now is       34.7 secs

     total energy              =    -494.56143418 Ry
     estimated scf accuracy    <       0.22370626 Ry

     total magnetization       =     0.44 Bohr mag/cell
     absolute magnetization    =     1.61 Bohr mag/cell

     iteration # 46     ecut=    30.00 Ry     beta= 0.70
     Davidson diagonalization with overlap
     ethr =  4.76E-04,  avg # of iterations =  1.0

     negative rho (up, down):  3.044E-02 0.000E+00

     total cpu time spent up to now is       35.0 secs

     WARNING: integrated charge=    32.00000677, expected=    32.00000000

     total energy              =    -494.57103222 Ry
     estimated scf accuracy    <       0.24156393 Ry

     total magnetization       =     0.02 Bohr mag/cell
     absolute magnetization    =     1.54 Bohr mag/cell

     iteration # 47     ecut=    30.00 Ry     beta= 0.70
     Davidson diagonalization with overlap
     ethr =  4.76E-04,  avg # of iterations =  1.5

     negative rho (up, down):  2.217E-02 0.000E+00

     total cpu time spent up to now is       35.2 secs

     WARNING: integrated charge=    32.00000942, expected=    32.00000000

     total energy              =    -494.57313575 Ry
     estimated scf accuracy    <       0.34440844 Ry

     total magnetization       =    -0.22 Bohr mag/cell
     absolute magnetization    =     2.05 Bohr mag/cell

     iteration # 48     ecut=    30.00 Ry     beta= 0.70
     Davidson diagonalization with overlap
     ethr =  4.76E-04,  avg # of iterations =  1.5

     negative rho (up, down):  6.554E-02 1.660E-04

     total cpu time spent up to now is       35.5 secs

     WARNING: integrated charge=    32.00000851, expected=    32.00000000

     total energy              =    -494.42059622 Ry
     estimated scf accuracy    <       0.29606569 Ry

     total magnetization       =    -0.28 Bohr mag/cell
     absolute magnetization    =     1.81 Bohr mag/cell

     iteration # 49     ecut=    30.00 Ry     beta= 0.70
     Davidson diagonalization with overlap
     ethr =  4.76E-04,  avg # of iterations =  2.0

     negative rho (up, down):  2.748E-01 3.215E-02

     total cpu time spent up to now is       35.8 secs

     total energy              =    -494.63980502 Ry
     estimated scf accuracy    <       0.17388317 Ry

     total magnetization       =     0.02 Bohr mag/cell
     absolute magnetization    =     1.42 Bohr mag/cell

     iteration # 50     ecut=    30.00 Ry     beta= 0.70
     Davidson diagonalization with overlap
     ethr =  4.76E-04,  avg # of iterations =  3.2

     negative rho (up, down):  1.667E-01 1.816E-02

     total cpu time spent up to now is       36.1 secs

     WARNING: integrated charge=    31.99999526, expected=    32.00000000

     total energy              =    -493.45562241 Ry
     estimated scf accuracy    <      12.33975709 Ry

     total magnetization       =     0.00 Bohr mag/cell
     absolute magnetization    =     5.04 Bohr mag/cell

     iteration # 51     ecut=    30.00 Ry     beta= 0.70
     Davidson diagonalization with overlap
     ethr =  4.76E-04,  avg # of iterations =  3.8

     negative rho (up, down):  1.380E-01 5.984E-03

     total cpu time spent up to now is       36.4 secs

     WARNING: integrated charge=    31.99999215, expected=    32.00000000

     total energy              =    -494.32617790 Ry
     estimated scf accuracy    <       0.83389961 Ry

     total magnetization       =     0.54 Bohr mag/cell
     absolute magnetization    =     1.56 Bohr mag/cell

     iteration # 52     ecut=    30.00 Ry     beta= 0.70
     Davidson diagonalization with overlap
     ethr =  4.76E-04,  avg # of iterations =  1.5

     negative rho (up, down):  1.243E-01 4.769E-03

     total cpu time spent up to now is       36.7 secs

     WARNING: integrated charge=    31.99999133, expected=    32.00000000

     total energy              =    -494.38779072 Ry
     estimated scf accuracy    <       0.54434977 Ry

     total magnetization       =     0.34 Bohr mag/cell
     absolute magnetization    =     1.68 Bohr mag/cell

     iteration # 53     ecut=    30.00 Ry     beta= 0.70
     Davidson diagonalization with overlap
     ethr =  4.76E-04,  avg # of iterations =  1.5

     negative rho (up, down):  1.701E-01 1.252E-02

     total cpu time spent up to now is       37.0 secs

     total energy              =    -494.37133290 Ry
     estimated scf accuracy    <       0.45005381 Ry

     total magnetization       =     0.18 Bohr mag/cell
     absolute magnetization    =     1.83 Bohr mag/cell

     iteration # 54     ecut=    30.00 Ry     beta= 0.70
     Davidson diagonalization with overlap
     ethr =  4.76E-04,  avg # of iterations =  1.5

     negative rho (up, down):  1.035E-01 3.182E-03

     total cpu time spent up to now is       37.2 secs

     total energy              =    -494.39311842 Ry
     estimated scf accuracy    <       0.91446580 Ry

     total magnetization       =     0.53 Bohr mag/cell
     absolute magnetization    =     1.61 Bohr mag/cell

     iteration # 55     ecut=    30.00 Ry     beta= 0.70
     Davidson diagonalization with overlap
     ethr =  4.76E-04,  avg # of iterations =  2.0

     negative rho (up, down):  1.401E-01 8.631E-03

     total cpu time spent up to now is       37.5 secs

     total energy              =    -494.35880095 Ry
     estimated scf accuracy    <       0.34295176 Ry

     total magnetization       =     0.22 Bohr mag/cell
     absolute magnetization    =     1.70 Bohr mag/cell

     iteration # 56     ecut=    30.00 Ry     beta= 0.70
     Davidson diagonalization with overlap
     ethr =  4.76E-04,  avg # of iterations =  1.5

     negative rho (up, down):  1.208E-01 6.486E-03

     total cpu time spent up to now is       37.8 secs

     total energy              =    -494.39090991 Ry
     estimated scf accuracy    <       0.52924841 Ry

     total magnetization       =     0.53 Bohr mag/cell
     absolute magnetization    =     1.65 Bohr mag/cell

     iteration # 57     ecut=    30.00 Ry     beta= 0.70
     Davidson diagonalization with overlap
     ethr =  4.76E-04,  avg # of iterations =  1.5

     negative rho (up, down):  4.937E-02 3.970E-05

     total cpu time spent up to now is       38.1 secs

     total energy              =    -494.48785119 Ry
     estimated scf accuracy    <       0.41984678 Ry

     total magnetization       =     0.43 Bohr mag/cell
     absolute magnetization    =     1.82 Bohr mag/cell

     iteration # 58     ecut=    30.00 Ry     beta= 0.70
     Davidson diagonalization with overlap
     ethr =  4.76E-04,  avg # of iterations =  1.5

     negative rho (up, down):  3.259E-02 0.000E+00

     total cpu time spent up to now is       38.4 secs

     total energy              =    -494.54859780 Ry
     estimated scf accuracy    <       0.20090551 Ry

     total magnetization       =     0.28 Bohr mag/cell
     absolute magnetization    =     1.34 Bohr mag/cell

     iteration # 59     ecut=    30.00 Ry     beta= 0.70
     Davidson diagonalization with overlap
     ethr =  4.76E-04,  avg # of iterations =  2.5

     negative rho (up, down):  5.205E-02 9.226E-05

     total cpu time spent up to now is       38.6 secs

     total energy              =    -494.47521376 Ry
     estimated scf accuracy    <       0.25524129 Ry

     total magnetization       =    -0.04 Bohr mag/cell
     absolute magnetization    =     1.68 Bohr mag/cell

     iteration # 60     ecut=    30.00 Ry     beta= 0.70
     Davidson diagonalization with overlap
     ethr =  4.76E-04,  avg # of iterations =  2.0

     negative rho (up, down):  4.023E-02 0.000E+00

     total cpu time spent up to now is       38.9 secs

     total energy              =    -494.52250994 Ry
     estimated scf accuracy    <       0.19077059 Ry

     total magnetization       =     0.33 Bohr mag/cell
     absolute magnetization    =     1.35 Bohr mag/cell

     iteration # 61     ecut=    30.00 Ry     beta= 0.70
     Davidson diagonalization with overlap
     ethr =  4.76E-04,  avg # of iterations =  1.5

     negative rho (up, down):  2.425E-02 0.000E+00

     total cpu time spent up to now is       39.2 secs

     total energy              =    -494.57989566 Ry
     estimated scf accuracy    <       0.20313767 Ry

     total magnetization       =     0.09 Bohr mag/cell
     absolute magnetization    =     1.46 Bohr mag/cell

     iteration # 62     ecut=    30.00 Ry     beta= 0.70
     Davidson diagonalization with overlap
     ethr =  4.76E-04,  avg # of iterations =  1.5

     negative rho (up, down):  2.102E-02 0.000E+00

     total cpu time spent up to now is       39.5 secs

     total energy              =    -494.58575810 Ry
     estimated scf accuracy    <       0.28463031 Ry

     total magnetization       =    -0.24 Bohr mag/cell
     absolute magnetization    =     1.77 Bohr mag/cell

     iteration # 63     ecut=    30.00 Ry     beta= 0.70
     Davidson diagonalization with overlap
     ethr =  4.76E-04,  avg # of iterations =  1.0

     negative rho (up, down):  3.710E-02 5.982E-02

     total cpu time spent up to now is       39.8 secs

     total energy              =    -494.40356245 Ry
     estimated scf accuracy    <       0.29074582 Ry

     total magnetization       =    -0.22 Bohr mag/cell
     absolute magnetization    =     1.77 Bohr mag/cell

     iteration # 64     ecut=    30.00 Ry     beta= 0.70
     Davidson diagonalization with overlap
     ethr =  4.76E-04,  avg # of iterations =  3.0

     negative rho (up, down):  5.834E-04 1.586E-02

     total cpu time spent up to now is       40.0 secs

     total energy              =    -494.53391396 Ry
     estimated scf accuracy    <       0.39964381 Ry

     total magnetization       =    -1.75 Bohr mag/cell
     absolute magnetization    =     1.81 Bohr mag/cell

     iteration # 65     ecut=    30.00 Ry     beta= 0.70
     Davidson diagonalization with overlap
     ethr =  4.76E-04,  avg # of iterations =  1.8

     negative rho (up, down):  5.414E-03 2.238E-02

     total cpu time spent up to now is       40.3 secs

     total energy              =    -494.56528306 Ry
     estimated scf accuracy    <       0.01890253 Ry

     total magnetization       =    -0.71 Bohr mag/cell
     absolute magnetization    =     1.11 Bohr mag/cell

     iteration # 66     ecut=    30.00 Ry     beta= 0.70
     Davidson diagonalization with overlap
     ethr =  5.91E-05,  avg # of iterations =  2.5

     negative rho (up, down):  5.655E-03 0.000E+00

     total cpu time spent up to now is       40.6 secs

     total energy              =    -494.46761539 Ry
     estimated scf accuracy    <       0.04175201 Ry

     total magnetization       =    -0.76 Bohr mag/cell
     absolute magnetization    =     1.19 Bohr mag/cell

     iteration # 67     ecut=    30.00 Ry     beta= 0.70
     Davidson diagonalization with overlap
     ethr =  5.91E-05,  avg # of iterations =  4.8

     negative rho (up, down):  1.323E-02 0.000E+00

     total cpu time spent up to now is       40.9 secs

     total energy              =    -494.61382795 Ry
     estimated scf accuracy    <       0.36554966 Ry

     total magnetization       =    -0.39 Bohr mag/cell
     absolute magnetization    =     1.99 Bohr mag/cell

     iteration # 68     ecut=    30.00 Ry     beta= 0.70
     Davidson diagonalization with overlap
     ethr =  5.91E-05,  avg # of iterations =  1.5

     negative rho (up, down):  1.627E-02 0.000E+00

     total cpu time spent up to now is       41.2 secs

     total energy              =    -494.61193151 Ry
     estimated scf accuracy    <       0.38183699 Ry

     total magnetization       =    -0.19 Bohr mag/cell
     absolute magnetization    =     1.78 Bohr mag/cell

     iteration # 69     ecut=    30.00 Ry     beta= 0.70
     Davidson diagonalization with overlap
     ethr =  5.91E-05,  avg # of iterations =  1.5

     negative rho (up, down):  2.051E-02 0.000E+00

     total cpu time spent up to now is       41.5 secs

     total energy              =    -494.59905297 Ry
     estimated scf accuracy    <       0.40836689 Ry

     total magnetization       =    -0.13 Bohr mag/cell
     absolute magnetization    =     1.87 Bohr mag/cell

     iteration # 70     ecut=    30.00 Ry     beta= 0.70
     Davidson diagonalization with overlap
     ethr =  5.91E-05,  avg # of iterations =  2.0

     negative rho (up, down):  2.760E-04 5.021E-04

     total cpu time spent up to now is       41.8 secs

     total energy              =    -494.57894141 Ry
     estimated scf accuracy    <       0.40703301 Ry

     total magnetization       =    -0.10 Bohr mag/cell
     absolute magnetization    =     1.96 Bohr mag/cell

     iteration # 71     ecut=    30.00 Ry     beta= 0.70
     Davidson diagonalization with overlap
     ethr =  5.91E-05,  avg # of iterations =  2.2

     negative rho (up, down):  0.000E+00 4.037E-03

     total cpu time spent up to now is       42.1 secs

     total energy              =    -494.57762270 Ry
     estimated scf accuracy    <       0.24223786 Ry

     total magnetization       =    -0.50 Bohr mag/cell
     absolute magnetization    =     1.83 Bohr mag/cell

     iteration # 72     ecut=    30.00 Ry     beta= 0.70
     Davidson diagonalization with overlap
     ethr =  5.91E-05,  avg # of iterations =  2.8

     negative rho (up, down):  0.000E+00 3.156E-03

     total cpu time spent up to now is       42.4 secs

     total energy              =    -494.60854655 Ry
     estimated scf accuracy    <       0.13464933 Ry

     total magnetization       =    -0.58 Bohr mag/cell
     absolute magnetization    =     1.60 Bohr mag/cell

     iteration # 73     ecut=    30.00 Ry     beta= 0.70
     Davidson diagonalization with overlap
     ethr =  5.91E-05,  avg # of iterations =  2.0

     negative rho (up, down):  0.000E+00 5.624E-03

     total cpu time spent up to now is       42.6 secs

     total energy              =    -494.58407794 Ry
     estimated scf accuracy    <       0.17361991 Ry

     total magnetization       =    -0.58 Bohr mag/cell
     absolute magnetization    =     1.72 Bohr mag/cell

     iteration # 74     ecut=    30.00 Ry     beta= 0.70
     Davidson diagonalization with overlap
     ethr =  5.91E-05,  avg # of iterations =  2.0

     negative rho (up, down):  3.557E-03 1.835E-02

     total cpu time spent up to now is       42.9 secs

     total energy              =    -494.50532000 Ry
     estimated scf accuracy    <       0.08551120 Ry

     total magnetization       =    -0.68 Bohr mag/cell
     absolute magnetization    =     1.54 Bohr mag/cell

     iteration # 75     ecut=    30.00 Ry     beta= 0.70
     Davidson diagonalization with overlap
     ethr =  5.91E-05,  avg # of iterations =  3.2

     negative rho (up, down):  3.811E-03 1.788E-02

     total cpu time spent up to now is       43.2 secs

     total energy              =    -494.57516607 Ry
     estimated scf accuracy    <       0.01489755 Ry

     total magnetization       =    -1.55 Bohr mag/cell
     absolute magnetization    =     1.72 Bohr mag/cell

     iteration # 76     ecut=    30.00 Ry     beta= 0.70
     Davidson diagonalization with overlap
     ethr =  4.66E-05,  avg # of iterations =  1.0

     negative rho (up, down):  3.534E-04 1.012E-02

     total cpu time spent up to now is       43.5 secs

     total energy              =    -494.57599469 Ry
     estimated scf accuracy    <       0.01476799 Ry

     total magnetization       =    -1.52 Bohr mag/cell
     absolute magnetization    =     1.70 Bohr mag/cell

     iteration # 77     ecut=    30.00 Ry     beta= 0.70
     Davidson diagonalization with overlap
     ethr =  4.61E-05,  avg # of iterations =  2.2

     negative rho (up, down):  2.320E-04 3.430E-04

     total cpu time spent up to now is       43.8 secs

     total energy              =    -494.57464645 Ry
     estimated scf accuracy    <       0.01813767 Ry

     total magnetization       =    -1.16 Bohr mag/cell
     absolute magnetization    =     1.56 Bohr mag/cell

     iteration # 78     ecut=    30.00 Ry     beta= 0.70
     Davidson diagonalization with overlap
     ethr =  4.61E-05,  avg # of iterations =  4.2

     negative rho (up, down):  7.401E-03 0.000E+00

     total cpu time spent up to now is       44.1 secs

     total energy              =    -494.62186144 Ry
     estimated scf accuracy    <       0.20635842 Ry

     total magnetization       =    -1.05 Bohr mag/cell
     absolute magnetization    =     2.13 Bohr mag/cell

     iteration # 79     ecut=    30.00 Ry     beta= 0.70
     Davidson diagonalization with overlap
     ethr =  4.61E-05,  avg # of iterations =  2.5

     negative rho (up, down):  0.000E+00 2.693E-03

     total cpu time spent up to now is       44.4 secs

     total energy              =    -494.54352973 Ry
     estimated scf accuracy    <       0.34243590 Ry

     total magnetization       =    -0.82 Bohr mag/cell
     absolute magnetization    =     2.19 Bohr mag/cell

     iteration # 80     ecut=    30.00 Ry     beta= 0.70
     Davidson diagonalization with overlap
     ethr =  4.61E-05,  avg # of iterations =  3.2

     negative rho (up, down):  1.896E-04 7.512E-03

     total cpu time spent up to now is       44.7 secs

     total energy              =    -494.54784828 Ry
     estimated scf accuracy    <       0.10273616 Ry

     total magnetization       =    -0.53 Bohr mag/cell
     absolute magnetization    =     1.42 Bohr mag/cell

     iteration # 81     ecut=    30.00 Ry     beta= 0.70
     Davidson diagonalization with overlap
     ethr =  4.61E-05,  avg # of iterations =  3.0

     negative rho (up, down):  0.000E+00 5.869E-03

     total cpu time spent up to now is       45.0 secs

     total energy              =    -494.58224727 Ry
     estimated scf accuracy    <       0.01780370 Ry

     total magnetization       =    -0.53 Bohr mag/cell
     absolute magnetization    =     1.00 Bohr mag/cell

     iteration # 82     ecut=    30.00 Ry     beta= 0.70
     Davidson diagonalization with overlap
     ethr =  4.61E-05,  avg # of iterations =  2.0

     negative rho (up, down):  7.263E-05 6.396E-03

     total cpu time spent up to now is       45.2 secs

     total energy              =    -494.58217960 Ry
     estimated scf accuracy    <       0.03299909 Ry

     total magnetization       =    -0.21 Bohr mag/cell
     absolute magnetization    =     0.87 Bohr mag/cell

     iteration # 83     ecut=    30.00 Ry     beta= 0.70
     Davidson diagonalization with overlap
     ethr =  4.61E-05,  avg # of iterations =  1.2

     negative rho (up, down):  4.030E-04 8.621E-03

     total cpu time spent up to now is       45.5 secs

     total energy              =    -494.57458511 Ry
     estimated scf accuracy    <       0.02598209 Ry

     total magnetization       =    -0.20 Bohr mag/cell
     absolute magnetization    =     0.81 Bohr mag/cell

     iteration # 84     ecut=    30.00 Ry     beta= 0.70
     Davidson diagonalization with overlap
     ethr =  4.61E-05,  avg # of iterations =  2.0

     negative rho (up, down):  3.443E-04 7.945E-03

     total cpu time spent up to now is       45.8 secs

     total energy              =    -494.57992827 Ry
     estimated scf accuracy    <       0.01159394 Ry

     total magnetization       =    -0.29 Bohr mag/cell
     absolute magnetization    =     0.72 Bohr mag/cell

     iteration # 85     ecut=    30.00 Ry     beta= 0.70
     Davidson diagonalization with overlap
     ethr =  3.62E-05,  avg # of iterations =  1.0

     negative rho (up, down):  4.967E-04 9.055E-03

     total cpu time spent up to now is       46.1 secs

     total energy              =    -494.57706567 Ry
     estimated scf accuracy    <       0.01343127 Ry

     total magnetization       =    -0.13 Bohr mag/cell
     absolute magnetization    =     0.64 Bohr mag/cell

     iteration # 86     ecut=    30.00 Ry     beta= 0.70
     Davidson diagonalization with overlap
     ethr =  3.62E-05,  avg # of iterations =  1.5

     negative rho (up, down):  3.928E-03 1.258E-02

     total cpu time spent up to now is       46.3 secs

     total energy              =    -494.56105154 Ry
     estimated scf accuracy    <       0.00927425 Ry

     total magnetization       =    -0.07 Bohr mag/cell
     absolute magnetization    =     0.54 Bohr mag/cell

     iteration # 87     ecut=    30.00 Ry     beta= 0.70
     Davidson diagonalization with overlap
     ethr =  2.90E-05,  avg # of iterations =  2.2

     negative rho (up, down):  5.429E-03 1.342E-02

     total cpu time spent up to now is       46.6 secs

     total energy              =    -494.57232616 Ry
     estimated scf accuracy    <       0.00299671 Ry

     total magnetization       =     0.23 Bohr mag/cell
     absolute magnetization    =     0.35 Bohr mag/cell

     iteration # 88     ecut=    30.00 Ry     beta= 0.70
     Davidson diagonalization with overlap
     ethr =  9.36E-06,  avg # of iterations =  2.0

[...]
     extrapolated charge   32.00340, renormalised to   32.00000
     Generating pointlists ...

     total cpu time spent up to now is      106.6 secs

     Self-consistent Calculation

     iteration #  1     ecut=    30.00 Ry     beta= 0.70
     Davidson diagonalization with overlap
     ethr =  1.00E-06,  avg # of iterations =  2.0

     Threshold (ethr) on eigenvalues was too large:
     Diagonalizing with lowered threshold

     Davidson diagonalization with overlap
     ethr =  2.09E-08,  avg # of iterations =  1.0

     total cpu time spent up to now is      107.1 secs

     total energy              =    -495.27376340 Ry
     estimated scf accuracy    <       0.00000708 Ry

     total magnetization       =    -0.00 Bohr mag/cell
     absolute magnetization    =     0.00 Bohr mag/cell

     iteration #  2     ecut=    30.00 Ry     beta= 0.70
     Davidson diagonalization with overlap
     ethr =  2.21E-08,  avg # of iterations =  3.5

     total cpu time spent up to now is      107.4 secs

     total energy              =    -495.27376956 Ry
     estimated scf accuracy    <       0.00003080 Ry

     total magnetization       =    -0.00 Bohr mag/cell
     absolute magnetization    =     0.00 Bohr mag/cell

     iteration #  3     ecut=    30.00 Ry     beta= 0.70
     Davidson diagonalization with overlap
     ethr =  2.21E-08,  avg # of iterations =  2.5

     total cpu time spent up to now is      107.7 secs

     total energy              =    -495.27377284 Ry
     estimated scf accuracy    <       0.00000349 Ry

     total magnetization       =    -0.00 Bohr mag/cell
     absolute magnetization    =     0.00 Bohr mag/cell

     iteration #  4     ecut=    30.00 Ry     beta= 0.70
     Davidson diagonalization with overlap
     ethr =  1.09E-08,  avg # of iterations =  1.0

     total cpu time spent up to now is      107.9 secs

     total energy              =    -495.27377316 Ry
     estimated scf accuracy    <       0.00000485 Ry

     total magnetization       =    -0.00 Bohr mag/cell
     absolute magnetization    =     0.00 Bohr mag/cell

     iteration #  5     ecut=    30.00 Ry     beta= 0.70
     Davidson diagonalization with overlap
     ethr =  1.09E-08,  avg # of iterations =  1.0

     total cpu time spent up to now is      108.2 secs

     total energy              =    -495.27377202 Ry
     estimated scf accuracy    <       0.00000604 Ry

     total magnetization       =     0.00 Bohr mag/cell
     absolute magnetization    =     0.00 Bohr mag/cell

     iteration #  6     ecut=    30.00 Ry     beta= 0.70
     Davidson diagonalization with overlap
     ethr =  1.09E-08,  avg # of iterations =  1.0

     total cpu time spent up to now is      108.5 secs

     total energy              =    -495.27377259 Ry
     estimated scf accuracy    <       0.00000260 Ry

     total magnetization       =     0.00 Bohr mag/cell
     absolute magnetization    =     0.00 Bohr mag/cell

     iteration #  7     ecut=    30.00 Ry     beta= 0.70
     Davidson diagonalization with overlap
     ethr =  8.11E-09,  avg # of iterations =  1.0

     total cpu time spent up to now is      108.8 secs

     total energy              =    -495.27377228 Ry
     estimated scf accuracy    <       0.00000399 Ry

     total magnetization       =     0.00 Bohr mag/cell
     absolute magnetization    =     0.00 Bohr mag/cell

     iteration #  8     ecut=    30.00 Ry     beta= 0.70
     Davidson diagonalization with overlap
     ethr =  8.11E-09,  avg # of iterations =  1.0

     total cpu time spent up to now is      109.0 secs

     total energy              =    -495.27377218 Ry
     estimated scf accuracy    <       0.00000294 Ry

     total magnetization       =     0.00 Bohr mag/cell
     absolute magnetization    =     0.00 Bohr mag/cell

     iteration #  9     ecut=    30.00 Ry     beta= 0.70
     Davidson diagonalization with overlap
     ethr =  8.11E-09,  avg # of iterations =  1.0

     total cpu time spent up to now is      109.3 secs

     total energy              =    -495.27377078 Ry
     estimated scf accuracy    <       0.00000246 Ry

     total magnetization       =     0.00 Bohr mag/cell
     absolute magnetization    =     0.00 Bohr mag/cell

     iteration # 10     ecut=    30.00 Ry     beta= 0.70
     Davidson diagonalization with overlap
     ethr =  7.70E-09,  avg # of iterations =  2.5

     total cpu time spent up to now is      109.6 secs

     total energy              =    -495.27377150 Ry
     estimated scf accuracy    <       0.00000014 Ry

     total magnetization       =     0.00 Bohr mag/cell
     absolute magnetization    =     0.00 Bohr mag/cell

     iteration # 11     ecut=    30.00 Ry     beta= 0.70
     Davidson diagonalization with overlap
     ethr =  4.43E-10,  avg # of iterations =  2.0

     total cpu time spent up to now is      109.9 secs

     total energy              =    -495.27377151 Ry
     estimated scf accuracy    <       0.00000003 Ry

     total magnetization       =    -0.00 Bohr mag/cell
     absolute magnetization    =     0.00 Bohr mag/cell

     iteration # 12     ecut=    30.00 Ry     beta= 0.70
     Davidson diagonalization with overlap
     ethr =  8.63E-11,  avg # of iterations =  1.0

     total cpu time spent up to now is      110.1 secs

     total energy              =    -495.27377150 Ry
     estimated scf accuracy    <       0.00000002 Ry

     total magnetization       =    -0.00 Bohr mag/cell
     absolute magnetization    =     0.00 Bohr mag/cell

     iteration # 13     ecut=    30.00 Ry     beta= 0.70
     Davidson diagonalization with overlap
     ethr =  5.31E-11,  avg # of iterations =  2.0

     Magnetic moment per site  (integrated on atomic sphere of radius R)
     atom   1 (R=0.267)  charge= 12.4780  magn=  0.0000
     atom   2 (R=0.267)  charge= 12.4780  magn=  0.0000

     total cpu time spent up to now is      110.4 secs

     End of self-consistent calculation

 ------ SPIN UP ------------


          k = 0.0000 0.0000 0.0000 (   525 PWs)   bands (ev):

   -58.2990 -57.9215 -24.4589 -23.7258 -23.7258 -23.5551 -23.5551 -22.8529
    19.2428  22.8631  26.9491  26.9491  27.2669  27.5305  27.5305  29.0594
    29.0594  30.2421  31.1427  31.1427

          k = 0.0000-0.7015 0.0000 (   476 PWs)   bands (ev):

   -57.8748 -57.7533 -25.0903 -24.8121 -24.0748 -23.7613 -23.6852 -23.1826
    22.7584  23.4760  23.6131  27.3579  27.4501  27.6729  28.2894  31.1305
    31.4153  31.6568  34.0965  37.1313

 ------ SPIN DOWN ----------


          k = 0.0000 0.0000 0.0000 (   525 PWs)   bands (ev):

   -58.2990 -57.9215 -24.4589 -23.7258 -23.7258 -23.5551 -23.5551 -22.8529
    19.2428  22.8631  26.9491  26.9491  27.2669  27.5305  27.5305  29.0594
    29.0594  30.2421  31.1427  31.1427

          k = 0.0000-0.7015 0.0000 (   476 PWs)   bands (ev):

   -57.8748 -57.7533 -25.0903 -24.8121 -24.0748 -23.7613 -23.6852 -23.1826
    22.7584  23.4760  23.6131  27.3579  27.4501  27.6729  28.2894  31.1305
    31.4153  31.6568  34.0965  37.1313

     the Fermi energy is    31.0394 ev

!    total energy              =    -495.27377150 Ry
     estimated scf accuracy    <          2.2E-09 Ry
     smearing contrib. (-TS)   =      -0.00267216 Ry
     internal energy E=F+TS    =    -495.27109934 Ry

     The total energy is F=E-TS. E is the sum of the following terms:
     one-electron contribution =    -139.93489086 Ry
     hartree contribution      =     101.52337070 Ry
     xc contribution           =     -56.08264544 Ry
     ewald contribution        =    -400.77693373 Ry

     total magnetization       =     0.00 Bohr mag/cell
     absolute magnetization    =     0.00 Bohr mag/cell

     convergence has been achieved in  13 iterations

     Forces acting on atoms (cartesian axes, Ry/au):

     atom    1 type  1   force =     0.00000000    0.00000000   -0.00000526
     atom    2 type  1   force =    -0.00000000   -0.00000000    0.00000526

     Total force =     0.000007     Total SCF correction =     0.000017
     SCF correction compared to forces is large: reduce conv_thr to get better values


     Computing stress (Cartesian axis) and pressure

          total   stress  (Ry/bohr**3)                   (kbar)     P=       -4.77
  -0.00002992   0.00000000   0.00000000           -4.40        0.00        0.00
   0.00000000  -0.00002992   0.00000000            0.00       -4.40        0.00
   0.00000000   0.00000000  -0.00003742            0.00        0.00       -5.50

     Energy error            =      1.6E-07 Ry
     Gradient error          =      5.3E-06 Ry/Bohr
     Cell gradient error     =      5.5E+00 kbar

     number of scf cycles    =  11
     number of bfgs steps    =  10

     enthalpy           old  =    -495.2737716628 Ry
     enthalpy           new  =    -495.2737714996 Ry

     CASE: enthalpy          _new > enthalpy          _old

     new trust radius        =       0.0000137180 bohr

     trust_radius < trust_radius_min

     resetting bfgs history

     Message from routine bfgs:
     history already reset at previous step: stopping
ibrav =      4
 celldm(1) =      4.11533164
 celldm(3) =      1.66441523
Input lattice vectors:
     0.82306633     0.00000000     0.00000000
    -0.41153316     0.71279635     0.00000000
    -0.00000000    -0.00000000     1.36992413
New lattice vectors in INITIAL alat:
     0.82306633     0.00000000     0.00000000
    -0.41153316     0.71279635     0.00000000
     0.00000000     0.00000000     1.36992413
New lattice vectors in NEW alat (for information only):
     1.00000000     0.00000000     0.00000000
    -0.50000000     0.86602540     0.00000000
     0.00000000     0.00000000     1.66441523
Discrepancy in bohr =     0.000000    0.000000    0.000000
     new conv_thr            =       0.0000000100 Ry

     new unit-cell volume =    100.46316 a.u.^3 (    14.88710 Ang^3 )
     density =     12.45858 g/cm^3

CELL_PARAMETERS (alat=  5.00000000)
   0.823066327   0.000000000   0.000000000
  -0.411533164   0.712796348   0.000000000
   0.000000000   0.000000000   1.369924127

ATOMIC_POSITIONS (crystal)
Fe            0.0000000000       -0.0000000000       -0.0833190355
Fe            0.3333333330       -0.3333333330        0.4166523685



     Writing config-only to output data dir ./temp/fe.save/
     NEW-OLD atomic charge density approx. for the potential

     Check: negative core charge=   -0.000002
     extrapolated charge   32.00474, renormalised to   32.00000
     Generating pointlists ...

     total cpu time spent up to now is      113.7 secs

     Self-consistent Calculation

     iteration #  1     ecut=    30.00 Ry     beta= 0.70
     Davidson diagonalization with overlap
     ethr =  1.00E-06,  avg # of iterations =  2.0

     Threshold (ethr) on eigenvalues was too large:
     Diagonalizing with lowered threshold

     Davidson diagonalization with overlap
     ethr =  3.55E-08,  avg # of iterations =  1.0

     total cpu time spent up to now is      114.1 secs

     total energy              =    -495.27375656 Ry
     estimated scf accuracy    <       0.00001199 Ry

     total magnetization       =     0.00 Bohr mag/cell
     absolute magnetization    =     0.00 Bohr mag/cell

     iteration #  2     ecut=    30.00 Ry     beta= 0.70
     Davidson diagonalization with overlap
     ethr =  3.75E-08,  avg # of iterations =  4.0

     total cpu time spent up to now is      114.4 secs

     total energy              =    -495.27376763 Ry
     estimated scf accuracy    <       0.00005590 Ry

     total magnetization       =     0.00 Bohr mag/cell
     absolute magnetization    =     0.00 Bohr mag/cell

     iteration #  3     ecut=    30.00 Ry     beta= 0.70
     Davidson diagonalization with overlap
     ethr =  3.75E-08,  avg # of iterations =  3.0

     total cpu time spent up to now is      114.7 secs

     total energy              =    -495.27377096 Ry
     estimated scf accuracy    <       0.00000628 Ry

     total magnetization       =     0.00 Bohr mag/cell
     absolute magnetization    =     0.00 Bohr mag/cell

     iteration #  4     ecut=    30.00 Ry     beta= 0.70
     Davidson diagonalization with overlap
     ethr =  1.96E-08,  avg # of iterations =  1.5

     total cpu time spent up to now is      115.0 secs

     total energy              =    -495.27377119 Ry
     estimated scf accuracy    <       0.00000160 Ry

     total magnetization       =     0.00 Bohr mag/cell
     absolute magnetization    =     0.00 Bohr mag/cell

     iteration #  5     ecut=    30.00 Ry     beta= 0.70
     Davidson diagonalization with overlap
     ethr =  4.99E-09,  avg # of iterations =  1.5

     total cpu time spent up to now is      115.3 secs

     total energy              =    -495.27377070 Ry
     estimated scf accuracy    <       0.00000109 Ry

     total magnetization       =     0.00 Bohr mag/cell
     absolute magnetization    =     0.00 Bohr mag/cell

     iteration #  6     ecut=    30.00 Ry     beta= 0.70
     Davidson diagonalization with overlap
     ethr =  3.40E-09,  avg # of iterations =  2.0

     Magnetic moment per site  (integrated on atomic sphere of radius R)
     atom   1 (R=0.267)  charge= 12.4779  magn=  0.0000
     atom   2 (R=0.267)  charge= 12.4779  magn=  0.0000

     total cpu time spent up to now is      115.6 secs

     End of self-consistent calculation

 ------ SPIN UP ------------


          k = 0.0000 0.0000 0.0000 (   525 PWs)   bands (ev):

   -58.3035 -57.9262 -24.4630 -23.7306 -23.7306 -23.5600 -23.5600 -22.8578
    19.2385  22.8594  26.9448  26.9448  27.2624  27.5260  27.5260  29.0550
    29.0550  30.2363  31.1377  31.1377

          k = 0.0000-0.7015 0.0000 (   476 PWs)   bands (ev):

   -57.8795 -57.7581 -25.0945 -24.8165 -24.0794 -23.7661 -23.6896 -23.1873
    22.7550  23.4720  23.6096  27.3539  27.4456  27.6684  28.2848  31.1255
    31.4103  31.6517  34.0909  37.1251

 ------ SPIN DOWN ----------


          k = 0.0000 0.0000 0.0000 (   525 PWs)   bands (ev):

   -58.3034 -57.9262 -24.4630 -23.7305 -23.7305 -23.5600 -23.5600 -22.8578
    19.2385  22.8594  26.9448  26.9448  27.2624  27.5260  27.5260  29.0550
    29.0550  30.2363  31.1377  31.1377

          k = 0.0000-0.7015 0.0000 (   476 PWs)   bands (ev):

   -57.8795 -57.7581 -25.0945 -24.8165 -24.0794 -23.7661 -23.6896 -23.1873
    22.7550  23.4720  23.6096  27.3539  27.4456  27.6684  28.2848  31.1256
    31.4103  31.6517  34.0909  37.1251

     the Fermi energy is    31.0344 ev

!    total energy              =    -495.27377096 Ry
     estimated scf accuracy    <          2.1E-09 Ry
     smearing contrib. (-TS)   =      -0.00267164 Ry
     internal energy E=F+TS    =    -495.27109932 Ry

     The total energy is F=E-TS. E is the sum of the following terms:
     one-electron contribution =    -139.96460797 Ry
     hartree contribution      =     101.53286568 Ry
     xc contribution           =     -56.08226023 Ry
     ewald contribution        =    -400.75709681 Ry

     total magnetization       =     0.00 Bohr mag/cell
     absolute magnetization    =     0.00 Bohr mag/cell

     convergence has been achieved in   6 iterations

     Forces acting on atoms (cartesian axes, Ry/au):

     atom    1 type  1   force =     0.00000000    0.00000000   -0.00022808
     atom    2 type  1   force =    -0.00000000   -0.00000000    0.00022808

     Total force =     0.000323     Total SCF correction =     0.000031


     Computing stress (Cartesian axis) and pressure

          total   stress  (Ry/bohr**3)                   (kbar)     P=       -7.32
  -0.00004345   0.00000000   0.00000000           -6.39        0.00        0.00
   0.00000000  -0.00004345   0.00000000            0.00       -6.39        0.00
   0.00000000   0.00000000  -0.00006238            0.00        0.00       -9.18

     Message from routine bfgs:
     history already reset at previous step: exiting
     Energy error            =      7.1E-07 Ry
     Gradient error          =      2.3E-04 Ry/Bohr
     Cell gradient error     =      9.2E+00 kbar
ibrav =      4
 celldm(1) =      4.11533164
 celldm(3) =      1.66441523
Input lattice vectors:
     0.82306633     0.00000000     0.00000000
    -0.41153316     0.71279635     0.00000000
     0.00000000     0.00000000     1.36992413
New lattice vectors in INITIAL alat:
     0.82306633     0.00000000     0.00000000
    -0.41153316     0.71279635     0.00000000
     0.00000000     0.00000000     1.36992413
New lattice vectors in NEW alat (for information only):
     1.00000000     0.00000000     0.00000000
    -0.50000000     0.86602540     0.00000000
     0.00000000     0.00000000     1.66441523
Discrepancy in bohr =     0.000000    0.000000    0.000000

     bfgs converged in  12 scf cycles and  10 bfgs steps
     (criteria: energy <  1.0E-04 Ry, force <  1.0E-03Ry/Bohr, cell <  5.0E-01kbar)

     End of BFGS Geometry Optimization

     Final enthalpy           =    -495.2737709565 Ry

     File ./temp/fe.bfgs deleted, as requested
Begin final coordinates
     new unit-cell volume =    100.46316 a.u.^3 (    14.88710 Ang^3 )
     density =     12.45858 g/cm^3

CELL_PARAMETERS (alat=  5.00000000)
   0.823066327   0.000000000   0.000000000
  -0.411533164   0.712796348   0.000000000
   0.000000000   0.000000000   1.369924127

ATOMIC_POSITIONS (crystal)
Fe            0.0000000000       -0.0000000000       -0.0833190355
Fe            0.3333333330       -0.3333333330        0.4166523685
End final coordinates



     Writing config-only to output data dir ./temp/fe.save/

     Writing all to output data dir ./temp/fe.save/

     init_run     :      2.05s CPU      2.09s WALL (       1 calls)
     electrons    :     74.11s CPU     77.20s WALL (      12 calls)
     update_pot   :     14.72s CPU     14.80s WALL (      11 calls)
     forces       :      9.71s CPU      9.80s WALL (      12 calls)
     stress       :     12.41s CPU     12.62s WALL (      12 calls)

     Called by init_run:
     wfcinit      :      0.02s CPU      0.02s WALL (       1 calls)
     potinit      :      0.52s CPU      0.53s WALL (       1 calls)
     hinit0       :      1.45s CPU      1.47s WALL (       1 calls)

     Called by electrons:
     c_bands      :     15.32s CPU     15.86s WALL (     268 calls)
     sum_band     :     31.40s CPU     32.57s WALL (     268 calls)
     v_of_rho     :     13.44s CPU     13.88s WALL (     277 calls)
     newd         :     13.23s CPU     14.17s WALL (     277 calls)
     mix_rho      :      1.03s CPU      1.06s WALL (     268 calls)

     Called by c_bands:
     init_us_2    :      0.39s CPU      0.41s WALL (    2244 calls)
     init_us_2:cp :      0.39s CPU      0.41s WALL (    2244 calls)
     cegterg      :     12.65s CPU     13.16s WALL (    1072 calls)

     Called by *egterg:
     cdiaghg      :      1.11s CPU      1.12s WALL (    3768 calls)
     h_psi        :      9.98s CPU     10.24s WALL (    3828 calls)
     s_psi        :      0.17s CPU      0.21s WALL (    3828 calls)
     g_psi        :      0.15s CPU      0.15s WALL (    2752 calls)

     Called by h_psi:
     h_psi:calbec :      0.22s CPU      0.32s WALL (    3828 calls)
     vloc_psi     :      9.55s CPU      9.65s WALL (    3828 calls)
     add_vuspsi   :      0.18s CPU      0.21s WALL (    3828 calls)

     General routines
     calbec       :      0.30s CPU      0.43s WALL (    5140 calls)
     fft          :      3.90s CPU      3.93s WALL (    7398 calls)
     ffts         :      0.09s CPU      0.09s WALL (    1090 calls)
     fftw         :      6.27s CPU      6.34s WALL (  135086 calls)
     interpolate  :      0.40s CPU      0.41s WALL (     554 calls)
     davcio       :      0.00s CPU      0.00s WALL (       4 calls)

     Parallel routines

     PWSCF        :   1m53.83s CPU   1m57.44s WALL


   This run was terminated on:  13:23:18  24Mar2022            

=------------------------------------------------------------------------------=
   JOB DONE.
=------------------------------------------------------------------------------=
