
     Program PWSCF v.7.0 starts on 19Mar2022 at  6:14: 5 

     This program is part of the open-source Quantum ESPRESSO suite
     for quantum simulation of materials; please cite
         "P. Giannozzi et al., J. Phys.:Condens. Matter 21 395502 (2009);
         "P. Giannozzi et al., J. Phys.:Condens. Matter 29 465901 (2017);
         "P. Giannozzi et al., J. Chem. Phys. 152 154105 (2020);
          URL http://www.quantum-espresso.org", 
     in publications or presentations arising from this work. More details at
     http://www.quantum-espresso.org/quote

     Parallel version (MPI), running on     1 processors

     MPI processes distributed on     1 nodes
     0 MiB available memory on the printing compute node when the environment starts

     Reading input from Ge.scf.in
     Message from routine read_cards :
     DEPRECATED: no units specified in ATOMIC_POSITIONS card
     Message from routine read_cards :
     ATOMIC_POSITIONS: units set to alat

     Current dimensions of program PWSCF are:
     Max number of different atomic species (ntypx) = 10
     Max number of k-points (npk) =  40000
     Max angular momentum in pseudopotentials (lmaxx) =  4

     Subspace diagonalization in iterative solution of the eigenvalue problem:
     a serial algorithm will be used


     G-vector sticks info
     --------------------
     sticks:   dense  smooth     PW     G-vecs:    dense   smooth      PW
     Sum         499     499    163                 7239     7239    1363

     Using Slab Decomposition



     bravais-lattice index     =            2
     lattice parameter (alat)  =      10.9220  a.u.
     unit-cell volume          =     325.7216 (a.u.)^3
     number of atoms/cell      =            2
     number of atomic types    =            1
     number of electrons       =        28.00
     number of Kohn-Sham states=           14
     kinetic-energy cutoff     =      30.0000  Ry
     charge density cutoff     =     120.0000  Ry
     scf convergence threshold =      1.0E-06
     mixing beta               =       0.7000
     number of iterations used =            8  plain     mixing
     Exchange-correlation=  SLA  PW   PBX  PBC
                           (   1   4   3   4   0   0   0)

     celldm(1)=  10.922000  celldm(2)=   0.000000  celldm(3)=   0.000000
     celldm(4)=   0.000000  celldm(5)=   0.000000  celldm(6)=   0.000000

     crystal axes: (cart. coord. in units of alat)
               a(1) = (  -0.500000   0.000000   0.500000 )  
               a(2) = (   0.000000   0.500000   0.500000 )  
               a(3) = (  -0.500000   0.500000   0.000000 )  

     reciprocal axes: (cart. coord. in units 2 pi/alat)
               b(1) = ( -1.000000 -1.000000  1.000000 )  
               b(2) = (  1.000000  1.000000  1.000000 )  
               b(3) = ( -1.000000  1.000000 -1.000000 )  


     PseudoPot. # 1 for Ge read from file:
     ./ge_pbe_v1.4.uspp.F.UPF
     MD5 check sum: 9c9eaa91e581c3f09632fb3098b2c6b2
     Pseudo is Ultrasoft + core correction, Zval = 14.0
     Generated by new atomic code, or converted to UPF format
     Using radial grid of  873 points,  6 beta functions with: 
                l(1) =   0
                l(2) =   0
                l(3) =   1
                l(4) =   1
                l(5) =   2
                l(6) =   2
     Q(r) pseudized with  8 coefficients,  rinner =    1.400   1.400   1.400
                                                       1.400   1.400

     atomic species   valence    mass     pseudopotential
        Ge            14.00    72.64000     Ge( 1.00)

     48 Sym. Ops., with inversion, found (24 have fractional translation)



   Cartesian axes

     site n.     atom                  positions (alat units)
         1           Ge  tau(   1) = (   0.0000000   0.0000000   0.0000000  )
         2           Ge  tau(   2) = (   0.2500000   0.2500000   0.2500000  )

     number of k points=    29
                       cart. coord. in units 2pi/alat
        k(    1) = (   0.0000000   0.0000000   0.0000000), wk =   0.0039062
        k(    2) = (  -0.1250000   0.1250000  -0.1250000), wk =   0.0312500
        k(    3) = (  -0.2500000   0.2500000  -0.2500000), wk =   0.0312500
        k(    4) = (  -0.3750000   0.3750000  -0.3750000), wk =   0.0312500
        k(    5) = (   0.5000000  -0.5000000   0.5000000), wk =   0.0156250
        k(    6) = (   0.0000000   0.2500000   0.0000000), wk =   0.0234375
        k(    7) = (  -0.1250000   0.3750000  -0.1250000), wk =   0.0937500
        k(    8) = (  -0.2500000   0.5000000  -0.2500000), wk =   0.0937500
        k(    9) = (   0.6250000  -0.3750000   0.6250000), wk =   0.0937500
        k(   10) = (   0.5000000  -0.2500000   0.5000000), wk =   0.0937500
        k(   11) = (   0.3750000  -0.1250000   0.3750000), wk =   0.0937500
        k(   12) = (   0.2500000   0.0000000   0.2500000), wk =   0.0468750
        k(   13) = (   0.0000000   0.5000000   0.0000000), wk =   0.0234375
        k(   14) = (  -0.1250000   0.6250000  -0.1250000), wk =   0.0937500
        k(   15) = (   0.7500000  -0.2500000   0.7500000), wk =   0.0937500
        k(   16) = (   0.6250000  -0.1250000   0.6250000), wk =   0.0937500
        k(   17) = (   0.5000000   0.0000000   0.5000000), wk =   0.0468750
        k(   18) = (   0.0000000   0.7500000   0.0000000), wk =   0.0234375
        k(   19) = (   0.8750000  -0.1250000   0.8750000), wk =   0.0937500
        k(   20) = (   0.7500000   0.0000000   0.7500000), wk =   0.0468750
        k(   21) = (   0.0000000  -1.0000000   0.0000000), wk =   0.0117188
        k(   22) = (  -0.2500000   0.5000000   0.0000000), wk =   0.0937500
        k(   23) = (   0.6250000  -0.3750000   0.8750000), wk =   0.1875000
        k(   24) = (   0.5000000  -0.2500000   0.7500000), wk =   0.0937500
        k(   25) = (   0.7500000  -0.2500000   1.0000000), wk =   0.0937500
        k(   26) = (   0.6250000  -0.1250000   0.8750000), wk =   0.1875000
        k(   27) = (   0.5000000   0.0000000   0.7500000), wk =   0.0937500
        k(   28) = (  -0.2500000  -1.0000000   0.0000000), wk =   0.0468750
        k(   29) = (  -0.5000000  -1.0000000   0.0000000), wk =   0.0234375

     Dense  grid:     7239 G-vectors     FFT dimensions: (  32,  32,  32)

     Estimated max dynamical RAM per process >      33.20 MB

     Check: negative core charge=   -0.000135

     Initial potential from superposition of free atoms

     starting charge      27.9983, renormalised to      28.0000
     Starting wfcs are   18 randomized atomic wfcs

     total cpu time spent up to now is        0.7 secs

     Self-consistent Calculation

     iteration #  1     ecut=    30.00 Ry     beta= 0.70
     Davidson diagonalization with overlap
     ethr =  1.00E-02,  avg # of iterations =  1.6

     Threshold (ethr) on eigenvalues was too large:
     Diagonalizing with lowered threshold

     Davidson diagonalization with overlap
     ethr =  1.08E-04,  avg # of iterations =  2.0

     total cpu time spent up to now is        2.2 secs

     total energy              =    -427.27211719 Ry
     estimated scf accuracy    <       0.03260284 Ry

     iteration #  2     ecut=    30.00 Ry     beta= 0.70
     Davidson diagonalization with overlap
     ethr =  1.16E-04,  avg # of iterations =  1.0

     total cpu time spent up to now is        3.0 secs

     total energy              =    -427.27321229 Ry
     estimated scf accuracy    <       0.00191295 Ry

     iteration #  3     ecut=    30.00 Ry     beta= 0.70
     Davidson diagonalization with overlap
     ethr =  6.83E-06,  avg # of iterations =  2.2

     total cpu time spent up to now is        3.9 secs

     total energy              =    -427.27336250 Ry
     estimated scf accuracy    <       0.00005338 Ry

     iteration #  4     ecut=    30.00 Ry     beta= 0.70
     Davidson diagonalization with overlap
     ethr =  1.91E-07,  avg # of iterations =  3.0

     total cpu time spent up to now is        4.9 secs

     total energy              =    -427.27338232 Ry
     estimated scf accuracy    <       0.00000373 Ry

     iteration #  5     ecut=    30.00 Ry     beta= 0.70
     Davidson diagonalization with overlap
     ethr =  1.33E-08,  avg # of iterations =  3.1

     total cpu time spent up to now is        5.9 secs

     End of self-consistent calculation

          k = 0.0000 0.0000 0.0000 (   893 PWs)   bands (ev):

   -17.1460 -17.1460 -17.1460 -17.1160 -17.1160 -16.9442 -16.9442 -16.9442
   -16.9285 -16.9285  -4.6317   7.1228   7.6650   7.6650

          k =-0.1250 0.1250-0.1250 (   914 PWs)   bands (ev):

   -17.1566 -17.1566 -17.1413 -17.1163 -17.1163 -16.9587 -16.9587 -16.9476
   -16.9286 -16.9286  -4.4530   5.2004   7.3582   7.3582

          k =-0.2500 0.2500-0.2500 (   902 PWs)   bands (ev):

   -17.1606 -17.1606 -17.1280 -17.0993 -17.0993 -16.9701 -16.9701 -16.9456
   -16.9162 -16.9162  -3.9363   3.0164   6.8483   6.8483

          k =-0.3750 0.3750-0.3750 (   911 PWs)   bands (ev):

   -17.1643 -17.1643 -17.1314 -17.0897 -17.0897 -16.9775 -16.9775 -16.9571
   -16.9112 -16.9112  -3.1866   1.2028   6.4837   6.4837

          k = 0.5000-0.5000 0.5000 (   886 PWs)   bands (ev):

   -17.1582 -17.1582 -17.1238 -17.0798 -17.0798 -16.9716 -16.9716 -16.9590
   -16.9047 -16.9047  -2.6980   0.3514   6.3563   6.3563

          k = 0.0000 0.2500 0.0000 (   909 PWs)   bands (ev):

   -17.1520 -17.1468 -17.1468 -17.1188 -17.1060 -16.9741 -16.9447 -16.9378
   -16.9378 -16.9276  -4.3924   5.1058   6.8662   6.8662

          k =-0.1250 0.3750-0.1250 (   905 PWs)   bands (ev):

   -17.1647 -17.1539 -17.1419 -17.1038 -17.0844 -16.9932 -16.9558 -16.9372
   -16.9216 -16.9150  -3.9836   3.4716   6.2435   6.3415

          k =-0.2500 0.5000-0.2500 (   908 PWs)   bands (ev):

   -17.1722 -17.1599 -17.1294 -17.0930 -17.0736 -16.9973 -16.9731 -16.9516
   -16.9133 -16.9047  -3.2875   1.6732   5.5922   6.0425

          k = 0.6250-0.3750 0.6250 (   901 PWs)   bands (ev):

   -17.1735 -17.1578 -17.1198 -17.0800 -17.0753 -16.9890 -16.9794 -16.9644
   -16.9064 -16.8995  -2.6029   0.4458   5.1615   6.0352

          k = 0.5000-0.2500 0.5000 (   908 PWs)   bands (ev):

   -17.1711 -17.1710 -17.1174 -17.0862 -17.0738 -16.9862 -16.9760 -16.9716
   -16.9060 -16.9028  -2.7894   0.7466   5.0385   6.3112

          k = 0.3750-0.1250 0.3750 (   903 PWs)   bands (ev):

   -17.1685 -17.1617 -17.1235 -17.0977 -17.0779 -16.9880 -16.9703 -16.9545
   -16.9115 -16.9064  -3.5477   2.2458   5.2891   6.8018

          k = 0.2500 0.0000 0.2500 (   915 PWs)   bands (ev):

   -17.1665 -17.1573 -17.1396 -17.1104 -17.1000 -16.9767 -16.9644 -16.9408
   -16.9291 -16.9174  -4.1596   3.9859   6.0688   7.3063

          k = 0.0000 0.5000 0.0000 (   902 PWs)   bands (ev):

   -17.1567 -17.1567 -17.1467 -17.0971 -17.0614 -17.0159 -16.9633 -16.9280
   -16.9158 -16.9158  -3.6830   2.9191   5.7837   5.7837

          k =-0.1250 0.6250-0.1250 (   898 PWs)   bands (ev):

   -17.1693 -17.1550 -17.1332 -17.0786 -17.0450 -17.0312 -16.9777 -16.9410
   -16.9062 -16.9017  -3.0667   1.6569   5.0215   5.4545

          k = 0.7500-0.2500 0.7500 (   898 PWs)   bands (ev):

   -17.1793 -17.1626 -17.1142 -17.0640 -17.0439 -17.0266 -16.9898 -16.9638
   -16.9001 -16.8894  -2.2990   0.4507   4.2080   5.4381

          k = 0.6250-0.1250 0.6250 (   905 PWs)   bands (ev):

   -17.1845 -17.1710 -17.1050 -17.0587 -17.0511 -17.0127 -17.0044 -16.9766
   -16.8974 -16.8871  -2.1543   0.2607   3.8196   5.7346

          k = 0.5000 0.0000 0.5000 (   907 PWs)   bands (ev):

   -17.1774 -17.1747 -17.1087 -17.0864 -17.0594 -16.9999 -16.9815 -16.9765
   -16.8990 -16.8978  -2.8707   1.2519   4.0936   6.2681

          k = 0.0000 0.7500 0.0000 (   910 PWs)   bands (ev):

   -17.1621 -17.1621 -17.1335 -17.0665 -17.0623 -17.0213 -16.9945 -16.9484
   -16.9034 -16.9034  -2.5310   0.8602   5.0611   5.0611

          k = 0.8750-0.1250 0.8750 (   911 PWs)   bands (ev):

   -17.1753 -17.1696 -17.1124 -17.0759 -17.0474 -17.0092 -17.0039 -16.9698
   -16.8982 -16.8952  -1.7574  -0.1207   4.3731   4.9779

          k = 0.7500 0.0000 0.7500 (   902 PWs)   bands (ev):

   -17.1826 -17.1697 -17.0989 -17.0535 -17.0298 -17.0239 -17.0211 -16.9785
   -16.8951 -16.8846  -1.4490  -0.4268   3.6679   5.2220

          k = 0.0000-1.0000 0.0000 (   934 PWs)   bands (ev):

   -17.1749 -17.1749 -17.1073 -17.1073 -17.0308 -17.0308 -16.9875 -16.9875
   -16.9018 -16.9018  -0.9892  -0.9892   4.8121   4.8121

          k =-0.2500 0.5000 0.0000 (   904 PWs)   bands (ev):

   -17.1683 -17.1630 -17.1289 -17.0943 -17.0644 -17.0079 -16.9685 -16.9481
   -16.9113 -16.9045  -3.4733   2.3342   5.0304   6.1637

          k = 0.6250-0.3750 0.8750 (   903 PWs)   bands (ev):

   -17.1767 -17.1692 -17.1131 -17.0787 -17.0520 -17.0137 -16.9825 -16.9671
   -16.9017 -16.8954  -2.7231   0.9870   4.3728   5.7262

          k = 0.5000-0.2500 0.7500 (   890 PWs)   bands (ev):

   -17.1793 -17.1632 -17.1013 -17.0657 -17.0510 -17.0049 -16.9910 -16.9740
   -16.8982 -16.8853  -2.2134   0.2349   4.1906   5.5303

          k = 0.7500-0.2500 1.0000 (   903 PWs)   bands (ev):

   -17.1717 -17.1683 -17.1157 -17.0632 -17.0508 -17.0258 -16.9934 -16.9617
   -16.8987 -16.8960  -2.3753   0.6653   4.4262   4.9947

          k = 0.6250-0.1250 0.8750 (   906 PWs)   bands (ev):

   -17.1830 -17.1723 -17.0961 -17.0520 -17.0466 -17.0239 -17.0124 -16.9830
   -16.8942 -16.8872  -1.6589  -0.1822   3.8439   4.8183

          k = 0.5000 0.0000 0.7500 (   903 PWs)   bands (ev):

   -17.1841 -17.1742 -17.0961 -17.0570 -17.0331 -17.0302 -17.0087 -16.9807
   -16.8962 -16.8856  -1.9642   0.1601   3.7056   5.1503

          k =-0.2500-1.0000 0.0000 (   916 PWs)   bands (ev):

   -17.1775 -17.1775 -17.0903 -17.0903 -17.0292 -17.0292 -16.9929 -16.9929
   -16.8943 -16.8943  -0.9504  -0.9504   4.3950   4.3950

          k =-0.5000-1.0000 0.0000 (   892 PWs)   bands (ev):

   -17.1754 -17.1754 -17.0666 -17.0666 -17.0302 -17.0302 -17.0007 -17.0007
   -16.8865 -16.8865  -0.9100  -0.9100   4.0669   4.0669

     highest occupied level (ev):     7.6650

!    total energy              =    -427.27338303 Ry
     estimated scf accuracy    <       0.00000018 Ry

     The total energy is the sum of the following terms:
     one-electron contribution =    -285.10947860 Ry
     hartree contribution      =     167.70328806 Ry
     xc contribution           =    -116.53036465 Ry
     ewald contribution        =    -193.33682784 Ry

     convergence has been achieved in   5 iterations

     Writing all to output data dir ./Germanium.save/

     init_run     :      0.59s CPU      0.60s WALL (       1 calls)
     electrons    :      5.09s CPU      5.19s WALL (       1 calls)

     Called by init_run:
     wfcinit      :      0.30s CPU      0.31s WALL (       1 calls)
     potinit      :      0.01s CPU      0.01s WALL (       1 calls)
     hinit0       :      0.25s CPU      0.25s WALL (       1 calls)

     Called by electrons:
     c_bands      :      3.95s CPU      4.02s WALL (       6 calls)
     sum_band     :      1.01s CPU      1.03s WALL (       6 calls)
     v_of_rho     :      0.07s CPU      0.07s WALL (       6 calls)
     newd         :      0.08s CPU      0.09s WALL (       6 calls)
     mix_rho      :      0.00s CPU      0.00s WALL (       6 calls)

     Called by c_bands:
     init_us_2    :      0.12s CPU      0.12s WALL (     377 calls)
     init_us_2:cp :      0.12s CPU      0.12s WALL (     377 calls)
     cegterg      :      3.18s CPU      3.24s WALL (     174 calls)

     Called by *egterg:
     cdiaghg      :      0.07s CPU      0.07s WALL (     517 calls)
     h_psi        :      3.11s CPU      3.15s WALL (     575 calls)
     s_psi        :      0.03s CPU      0.04s WALL (     575 calls)
     g_psi        :      0.03s CPU      0.03s WALL (     372 calls)

     Called by h_psi:
     h_psi:calbec :      0.04s CPU      0.06s WALL (     575 calls)
     vloc_psi     :      3.02s CPU      3.04s WALL (     575 calls)
     add_vuspsi   :      0.04s CPU      0.04s WALL (     575 calls)

     General routines
     calbec       :      0.06s CPU      0.08s WALL (     749 calls)
     fft          :      0.02s CPU      0.02s WALL (      67 calls)
     ffts         :      0.00s CPU      0.00s WALL (       6 calls)
     fftw         :      1.76s CPU      1.77s WALL (   15116 calls)

     Parallel routines

     PWSCF        :      5.75s CPU      5.87s WALL


   This run was terminated on:   6:14:10  19Mar2022            

=------------------------------------------------------------------------------=
   JOB DONE.
=------------------------------------------------------------------------------=
