
     Program PWSCF v.7.0 starts on 26Mar2022 at 22:40: 1 

     This program is part of the open-source Quantum ESPRESSO suite
     for quantum simulation of materials; please cite
         "P. Giannozzi et al., J. Phys.:Condens. Matter 21 395502 (2009);
         "P. Giannozzi et al., J. Phys.:Condens. Matter 29 465901 (2017);
         "P. Giannozzi et al., J. Chem. Phys. 152 154105 (2020);
          URL http://www.quantum-espresso.org", 
     in publications or presentations arising from this work. More details at
     http://www.quantum-espresso.org/quote

     Parallel version (MPI), running on     1 processors

     MPI processes distributed on     1 nodes
     0 MiB available memory on the printing compute node when the environment starts

     Reading input from pbtio3.relax.in

     Current dimensions of program PWSCF are:
     Max number of different atomic species (ntypx) = 10
     Max number of k-points (npk) =  40000
     Max angular momentum in pseudopotentials (lmaxx) =  4
     file Pb.pbe-dn-kjpaw_psl.0.2.2.UPF: wavefunction(s)  6S renormalized
     file O.pbe-n-kjpaw_psl.0.1.UPF: wavefunction(s)  2P renormalized
     Message from routine setup:
     using ibrav=0 with symmetry is DISCOURAGED, use correct ibrav instead

     Subspace diagonalization in iterative solution of the eigenvalue problem:
     a serial algorithm will be used


     G-vector sticks info
     --------------------
     sticks:   dense  smooth     PW     G-vecs:    dense   smooth      PW
     Sum         545     545    161                 9459     9459    1551

     Using Slab Decomposition



     bravais-lattice index     =            0
     lattice parameter (alat)  =       7.5263  a.u.
     unit-cell volume          =     426.3263 (a.u.)^3
     number of atoms/cell      =            5
     number of atomic types    =            3
     number of electrons       =        44.00
     number of Kohn-Sham states=           26
     kinetic-energy cutoff     =      30.0000  Ry
     charge density cutoff     =     120.0000  Ry
     scf convergence threshold =      1.0E-06
     mixing beta               =       0.7000
     number of iterations used =            8  plain     mixing
     energy convergence thresh.=      1.0E-04
     force convergence thresh. =      1.0E-03
     Exchange-correlation= SLA  PW   PBX  PBC
                           (   1   4   3   4   0   0   0)
     nstep                     =           50


     celldm(1)=   7.526286  celldm(2)=   0.000000  celldm(3)=   0.000000
     celldm(4)=   0.000000  celldm(5)=   0.000000  celldm(6)=   0.000000

     crystal axes: (cart. coord. in units of alat)
               a(1) = (   1.000000   0.000000   0.000000 )  
               a(2) = (   0.000000   1.000000   0.000000 )  
               a(3) = (   0.000000   0.000000   1.000000 )  

     reciprocal axes: (cart. coord. in units 2 pi/alat)
               b(1) = (  1.000000  0.000000  0.000000 )  
               b(2) = (  0.000000  1.000000  0.000000 )  
               b(3) = (  0.000000  0.000000  1.000000 )  


     PseudoPot. # 1 for Pb read from file:
     /Users/vinhtran/Documents/GitHub/Harvard_APPHY_275/Lab_3/Problem_2/Part_1/pseudo/Pb.pbe-dn-kjpaw_psl.0.2.2.UPF
     MD5 check sum: 9d431e6316058b74ade52399a6cf67da
     Pseudo is Projector augmented-wave + core cor, Zval = 14.0
     Generated using "atomic" code by A. Dal Corso  v.5.0.99 svn rev. 10869
     Shape of augmentation charge: PSQ
     Using radial grid of 1281 points,  6 beta functions with: 
                l(1) =   0
                l(2) =   0
                l(3) =   1
                l(4) =   1
                l(5) =   2
                l(6) =   2
     Q(r) pseudized with 0 coefficients 


     PseudoPot. # 2 for Ti read from file:
     /Users/vinhtran/Documents/GitHub/Harvard_APPHY_275/Lab_3/Problem_2/Part_1/pseudo/ti_pbe_v1.4.uspp.F.UPF
     MD5 check sum: 88a00a6731bd790ddea75d31a80cb452
     Pseudo is Ultrasoft + core correction, Zval = 12.0
     Generated by new atomic code, or converted to UPF format
     Using radial grid of  851 points,  6 beta functions with: 
                l(1) =   0
                l(2) =   0
                l(3) =   1
                l(4) =   1
                l(5) =   2
                l(6) =   2
     Q(r) pseudized with  6 coefficients,  rinner =    1.000   1.000   1.000
                                                       1.000   1.000

     PseudoPot. # 3 for O  read from file:
     /Users/vinhtran/Documents/GitHub/Harvard_APPHY_275/Lab_3/Problem_2/Part_1/pseudo/O.pbe-n-kjpaw_psl.0.1.UPF
     MD5 check sum: 0234752ac141de4415c5fc33072bef88
     Pseudo is Projector augmented-wave + core cor, Zval =  6.0
     Generated using "atomic" code by A. Dal Corso  v.5.0.99 svn rev. 10869
     Shape of augmentation charge: BESSEL
     Using radial grid of 1095 points,  4 beta functions with: 
                l(1) =   0
                l(2) =   0
                l(3) =   1
                l(4) =   1
     Q(r) pseudized with 0 coefficients 


     atomic species   valence    mass     pseudopotential
        Pb            14.00   207.20000     Pb( 1.00)
        Ti            12.00    47.86700     Ti( 1.00)
        O              6.00    15.99900     O ( 1.00)

      8 Sym. Ops. (no inversion) found



   Cartesian axes

     site n.     atom                  positions (alat units)
         1           Pb  tau(   1) = (   0.0000000   0.0000000   0.0000000  )
         2           Ti  tau(   2) = (   0.5000000   0.5000000   0.5010000  )
         3           O   tau(   3) = (   0.5000000   0.5000000   0.0000000  )
         4           O   tau(   4) = (   0.5000000   0.0000000   0.5000000  )
         5           O   tau(   5) = (   0.0000000   0.5000000   0.5000000  )

     number of k points=     6  Gaussian smearing, width (Ry)=  0.0200
                       cart. coord. in units 2pi/alat
        k(    1) = (   0.1250000   0.1250000   0.1250000), wk =   0.2500000
        k(    2) = (   0.1250000   0.1250000   0.3750000), wk =   0.2500000
        k(    3) = (   0.1250000   0.3750000   0.3750000), wk =   0.5000000
        k(    4) = (   0.3750000   0.3750000   0.3750000), wk =   0.2500000
        k(    5) = (   0.3750000  -0.1250000   0.1250000), wk =   0.5000000
        k(    6) = (   0.3750000  -0.3750000   0.1250000), wk =   0.2500000

     Dense  grid:     9459 G-vectors     FFT dimensions: (  27,  27,  27)

     Estimated max dynamical RAM per process >      40.81 MB

     Check: negative core charge=   -0.000191

     Initial potential from superposition of free atoms

     starting charge      42.9976, renormalised to      44.0000
     Starting wfcs are   31 randomized atomic wfcs
     Checking if some PAW data can be deallocated... 

     total cpu time spent up to now is        1.7 secs

     Self-consistent Calculation

     iteration #  1     ecut=    30.00 Ry     beta= 0.70
     Davidson diagonalization with overlap
     ethr =  1.00E-02,  avg # of iterations =  2.0

     total cpu time spent up to now is        2.6 secs

     total energy              =   -1114.55239651 Ry
     estimated scf accuracy    <       0.98280421 Ry

     iteration #  2     ecut=    30.00 Ry     beta= 0.70
     Davidson diagonalization with overlap
     ethr =  2.23E-03,  avg # of iterations =  4.5

     total cpu time spent up to now is        3.5 secs

     total energy              =   -1113.51869436 Ry
     estimated scf accuracy    <       8.73373744 Ry

     iteration #  3     ecut=    30.00 Ry     beta= 0.70
     Davidson diagonalization with overlap
     ethr =  2.23E-03,  avg # of iterations =  7.0

     total cpu time spent up to now is        4.5 secs

     total energy              =   -1115.00728277 Ry
     estimated scf accuracy    <       0.44274335 Ry

     iteration #  4     ecut=    30.00 Ry     beta= 0.70
     Davidson diagonalization with overlap
     ethr =  1.01E-03,  avg # of iterations =  3.2

     total cpu time spent up to now is        5.4 secs

     total energy              =   -1115.01509154 Ry
     estimated scf accuracy    <       0.13724987 Ry

     iteration #  5     ecut=    30.00 Ry     beta= 0.70
     Davidson diagonalization with overlap
     ethr =  3.12E-04,  avg # of iterations =  6.0

     total cpu time spent up to now is        6.3 secs

     total energy              =   -1115.02840503 Ry
     estimated scf accuracy    <       0.00948221 Ry

     iteration #  6     ecut=    30.00 Ry     beta= 0.70
     Davidson diagonalization with overlap
     ethr =  2.16E-05,  avg # of iterations =  6.5

     total cpu time spent up to now is        7.2 secs

     total energy              =   -1115.03066442 Ry
     estimated scf accuracy    <       0.00021452 Ry

     iteration #  7     ecut=    30.00 Ry     beta= 0.70
     Davidson diagonalization with overlap
     ethr =  4.88E-07,  avg # of iterations =  5.7

     total cpu time spent up to now is        8.2 secs

     total energy              =   -1115.03081515 Ry
     estimated scf accuracy    <       0.00025978 Ry

     iteration #  8     ecut=    30.00 Ry     beta= 0.70
     Davidson diagonalization with overlap
     ethr =  4.88E-07,  avg # of iterations =  2.5

     total cpu time spent up to now is        9.1 secs

     total energy              =   -1115.03084645 Ry
     estimated scf accuracy    <       0.00002575 Ry

     iteration #  9     ecut=    30.00 Ry     beta= 0.70
     Davidson diagonalization with overlap
     ethr =  5.85E-08,  avg # of iterations =  4.7

     total cpu time spent up to now is       10.0 secs

     total energy              =   -1115.03085413 Ry
     estimated scf accuracy    <       0.00000640 Ry

     iteration # 10     ecut=    30.00 Ry     beta= 0.70
     Davidson diagonalization with overlap
     ethr =  1.46E-08,  avg # of iterations =  3.0

     total cpu time spent up to now is       10.9 secs

     End of self-consistent calculation

          k = 0.1250 0.1250 0.1250 (  1195 PWs)   bands (ev):

   -46.4533 -22.6815 -22.6812 -22.6811  -7.2548  -6.3540  -6.3539  -5.1030
    -5.1030  -5.0926  -4.9926  -4.9926   3.8602   6.7755   6.7755   7.2834
     8.4871   8.4873   9.1858   9.1862   9.2009   9.2639  12.6061  12.6258
    12.6259  14.8035

          k = 0.1250 0.1250 0.3750 (  1183 PWs)   bands (ev):

   -46.4525 -22.7203 -22.6798 -22.6797  -6.9321  -6.2726  -6.2401  -5.1487
    -5.0989  -5.0898  -5.0519  -4.9726   3.2846   6.2558   6.8936   7.2347
     7.7626   8.1375   8.6197   9.2586   9.3370   9.8770  12.5565  13.5745
    13.5876  14.2401

          k = 0.1250 0.3750 0.3750 (  1175 PWs)   bands (ev):

   -46.4516 -22.7187 -22.7185 -22.6783  -6.7386  -6.1923  -6.1433  -5.1291
    -5.0976  -5.0645  -5.0109  -4.9003   3.0521   6.2099   6.3280   6.7402
     7.0171   7.9107   8.6919   8.8135   9.1538   9.9446  13.4152  13.5243
    14.0062  15.0518

          k = 0.3750 0.3750 0.3750 (  1175 PWs)   bands (ev):

   -46.4508 -22.7171 -22.7169 -22.7169  -6.4215  -6.2716  -6.2715  -5.0696
    -5.0696  -4.8782  -4.8398  -4.8398   3.6319   5.6639   5.6639   6.0832
     6.4627   6.4628   7.2352   9.8893   9.8893   9.9912  13.5950  13.8539
    13.8539  15.9876

          k = 0.3750-0.1250 0.1250 (  1183 PWs)   bands (ev):

   -46.4525 -22.7203 -22.6798 -22.6797  -6.9321  -6.2725  -6.2402  -5.1487
    -5.0989  -5.0898  -5.0519  -4.9727   3.2846   6.2556   6.8936   7.2348
     7.7626   8.1375   8.6196   9.2587   9.3370   9.8771  12.5566  13.5744
    13.5876  14.2401

          k = 0.3750-0.3750 0.1250 (  1175 PWs)   bands (ev):

   -46.4516 -22.7186 -22.7184 -22.6783  -6.7385  -6.1923  -6.1434  -5.1290
    -5.0976  -5.0645  -5.0109  -4.9003   3.0521   6.2099   6.3279   6.7402
     7.0171   7.9108   8.6919   8.8135   9.1539   9.9446  13.4152  13.5242
    14.0062  15.0518

     the Fermi energy is    11.2840 ev

!    total energy              =   -1115.03085548 Ry
     estimated scf accuracy    <       0.00000011 Ry
     smearing contrib. (-TS)   =      -0.00000000 Ry
     internal energy E=F+TS    =   -1115.03085548 Ry

     The total energy is F=E-TS. E is the sum of the following terms:
     one-electron contribution =     -77.34422781 Ry
     hartree contribution      =      69.98597284 Ry
     xc contribution           =     -84.69125045 Ry
     ewald contribution        =    -265.92351615 Ry
     one-center paw contrib.   =    -757.05783392 Ry

     convergence has been achieved in  10 iterations

     Forces acting on atoms (cartesian axes, Ry/au):

     atom    1 type  1   force =     0.00000000    0.00000000    0.00045804
     atom    2 type  2   force =     0.00000000    0.00000000   -0.00045965
     atom    3 type  3   force =     0.00000000    0.00000000   -0.00039144
     atom    4 type  3   force =     0.00000000    0.00000000    0.00019652
     atom    5 type  3   force =     0.00000000    0.00000000    0.00019652

     Total force =     0.000480     Total SCF correction =     0.000042

     BFGS Geometry Optimization
     Energy error            =      0.0E+00 Ry
     Gradient error          =      3.9E-04 Ry/Bohr

     bfgs converged in   1 scf cycles and   0 bfgs steps
     (criteria: energy <  1.0E-04 Ry, force <  1.0E-03 Ry/Bohr)

     End of BFGS Geometry Optimization

     Final energy             =   -1115.0308554841 Ry
Begin final coordinates

ATOMIC_POSITIONS (alat)
Pb            0.0000000000        0.0000000000        0.0000000000    0   0   0
Ti            0.5000000000        0.5000000000        0.5010000000    0   0   0
O             0.5000000000        0.5000000000        0.0000000000
O             0.5000000000        0.0000000000        0.5000000000
O             0.0000000000        0.5000000000        0.5000000000
End final coordinates



     Writing all to output data dir ./temp/PbTiO3.save/

     init_run     :      1.45s CPU      1.47s WALL (       1 calls)
     electrons    :      9.00s CPU      9.26s WALL (       1 calls)
     forces       :      0.08s CPU      0.09s WALL (       1 calls)

     Called by init_run:
     wfcinit      :      0.09s CPU      0.09s WALL (       1 calls)
     potinit      :      0.53s CPU      0.53s WALL (       1 calls)
     hinit0       :      0.79s CPU      0.79s WALL (       1 calls)

     Called by electrons:
     c_bands      :      2.53s CPU      2.65s WALL (      10 calls)
     sum_band     :      0.90s CPU      0.94s WALL (      10 calls)
     v_of_rho     :      0.07s CPU      0.07s WALL (      11 calls)
     newd         :      0.37s CPU      0.42s WALL (      11 calls)
     PAW_pot      :      5.66s CPU      5.72s WALL (      11 calls)
     mix_rho      :      0.01s CPU      0.01s WALL (      10 calls)

     Called by c_bands:
     init_us_2    :      0.10s CPU      0.11s WALL (     132 calls)
     init_us_2:cp :      0.10s CPU      0.11s WALL (     132 calls)
     cegterg      :      2.06s CPU      2.17s WALL (      60 calls)

     Called by *egterg:
     cdiaghg      :      0.17s CPU      0.18s WALL (     330 calls)
     h_psi        :      1.61s CPU      1.67s WALL (     336 calls)
     s_psi        :      0.04s CPU      0.05s WALL (     336 calls)
     g_psi        :      0.03s CPU      0.03s WALL (     270 calls)

     Called by h_psi:
     h_psi:calbec :      0.05s CPU      0.08s WALL (     336 calls)
     vloc_psi     :      1.50s CPU      1.52s WALL (     336 calls)
     add_vuspsi   :      0.05s CPU      0.07s WALL (     336 calls)

     General routines
     calbec       :      0.07s CPU      0.10s WALL (     420 calls)
     fft          :      0.02s CPU      0.02s WALL (     132 calls)
     ffts         :      0.00s CPU      0.00s WALL (      10 calls)
     fftw         :      0.96s CPU      0.97s WALL (   10476 calls)

     Parallel routines

     PWSCF        :     10.74s CPU     11.04s WALL


   This run was terminated on:  22:40:12  26Mar2022            

=------------------------------------------------------------------------------=
   JOB DONE.
=------------------------------------------------------------------------------=
