
     Program PWSCF v.7.0 starts on 18Mar2022 at 18:51:15 

     This program is part of the open-source Quantum ESPRESSO suite
     for quantum simulation of materials; please cite
         "P. Giannozzi et al., J. Phys.:Condens. Matter 21 395502 (2009);
         "P. Giannozzi et al., J. Phys.:Condens. Matter 29 465901 (2017);
         "P. Giannozzi et al., J. Chem. Phys. 152 154105 (2020);
          URL http://www.quantum-espresso.org", 
     in publications or presentations arising from this work. More details at
     http://www.quantum-espresso.org/quote

     Parallel version (MPI), running on     1 processors

     MPI processes distributed on     1 nodes
     0 MiB available memory on the printing compute node when the environment starts

     Reading input from Ge.scf.in
     Message from routine read_cards :
     DEPRECATED: no units specified in ATOMIC_POSITIONS card
     Message from routine read_cards :
     ATOMIC_POSITIONS: units set to alat

     Current dimensions of program PWSCF are:
     Max number of different atomic species (ntypx) = 10
     Max number of k-points (npk) =  40000
     Max angular momentum in pseudopotentials (lmaxx) =  4

     Subspace diagonalization in iterative solution of the eigenvalue problem:
     a serial algorithm will be used


     G-vector sticks info
     --------------------
     sticks:   dense  smooth     PW     G-vecs:    dense   smooth      PW
     Sum        1261    1261    367                29603    29603    4693

     Using Slab Decomposition



     bravais-lattice index     =            2
     lattice parameter (alat)  =      10.6902  a.u.
     unit-cell volume          =     305.4184 (a.u.)^3
     number of atoms/cell      =            2
     number of atomic types    =            1
     number of electrons       =        28.00
     number of Kohn-Sham states=           14
     kinetic-energy cutoff     =      80.0000  Ry
     charge density cutoff     =     320.0000  Ry
     scf convergence threshold =      1.0E-06
     mixing beta               =       0.7000
     number of iterations used =            8  plain     mixing
     Exchange-correlation=  SLA  PW   PBX  PBC
                           (   1   4   3   4   0   0   0)

     celldm(1)=  10.690181  celldm(2)=   0.000000  celldm(3)=   0.000000
     celldm(4)=   0.000000  celldm(5)=   0.000000  celldm(6)=   0.000000

     crystal axes: (cart. coord. in units of alat)
               a(1) = (  -0.500000   0.000000   0.500000 )  
               a(2) = (   0.000000   0.500000   0.500000 )  
               a(3) = (  -0.500000   0.500000   0.000000 )  

     reciprocal axes: (cart. coord. in units 2 pi/alat)
               b(1) = ( -1.000000 -1.000000  1.000000 )  
               b(2) = (  1.000000  1.000000  1.000000 )  
               b(3) = ( -1.000000  1.000000 -1.000000 )  


     PseudoPot. # 1 for Ge read from file:
     ./ge_pbe_v1.4.uspp.F.UPF
     MD5 check sum: 9c9eaa91e581c3f09632fb3098b2c6b2
     Pseudo is Ultrasoft + core correction, Zval = 14.0
     Generated by new atomic code, or converted to UPF format
     Using radial grid of  873 points,  6 beta functions with: 
                l(1) =   0
                l(2) =   0
                l(3) =   1
                l(4) =   1
                l(5) =   2
                l(6) =   2
     Q(r) pseudized with  8 coefficients,  rinner =    1.400   1.400   1.400
                                                       1.400   1.400

     atomic species   valence    mass     pseudopotential
        Ge            14.00    72.64000     Ge( 1.00)

      4 Sym. Ops. (no inversion) found



   Cartesian axes

     site n.     atom                  positions (alat units)
         1           Ge  tau(   1) = (   0.0000000   0.0000000   0.0500000  )
         2           Ge  tau(   2) = (   0.2500000   0.2500000   0.2500000  )

     number of k points=    95
                       cart. coord. in units 2pi/alat
        k(    1) = (   0.0000000   0.0000000   0.0000000), wk =   0.0039062
        k(    2) = (  -0.1250000   0.1250000  -0.1250000), wk =   0.0156250
        k(    3) = (  -0.2500000   0.2500000  -0.2500000), wk =   0.0156250
        k(    4) = (  -0.3750000   0.3750000  -0.3750000), wk =   0.0156250
        k(    5) = (   0.5000000  -0.5000000   0.5000000), wk =   0.0078125
        k(    6) = (   0.0000000   0.2500000   0.0000000), wk =   0.0156250
        k(    7) = (  -0.1250000   0.3750000  -0.1250000), wk =   0.0312500
        k(    8) = (  -0.2500000   0.5000000  -0.2500000), wk =   0.0312500
        k(    9) = (   0.6250000  -0.3750000   0.6250000), wk =   0.0312500
        k(   10) = (   0.5000000  -0.2500000   0.5000000), wk =   0.0312500
        k(   11) = (   0.3750000  -0.1250000   0.3750000), wk =   0.0312500
        k(   12) = (   0.2500000   0.0000000   0.2500000), wk =   0.0312500
        k(   13) = (   0.0000000   0.5000000   0.0000000), wk =   0.0156250
        k(   14) = (  -0.1250000   0.6250000  -0.1250000), wk =   0.0312500
        k(   15) = (   0.7500000  -0.2500000   0.7500000), wk =   0.0312500
        k(   16) = (   0.6250000  -0.1250000   0.6250000), wk =   0.0312500
        k(   17) = (   0.5000000   0.0000000   0.5000000), wk =   0.0312500
        k(   18) = (   0.0000000   0.7500000   0.0000000), wk =   0.0156250
        k(   19) = (   0.8750000  -0.1250000   0.8750000), wk =   0.0312500
        k(   20) = (   0.7500000   0.0000000   0.7500000), wk =   0.0312500
        k(   21) = (   0.0000000  -1.0000000   0.0000000), wk =   0.0078125
        k(   22) = (  -0.2500000   0.5000000   0.0000000), wk =   0.0156250
        k(   23) = (   0.6250000  -0.3750000   0.8750000), wk =   0.0312500
        k(   24) = (   0.5000000  -0.2500000   0.7500000), wk =   0.0312500
        k(   25) = (   0.7500000  -0.2500000   1.0000000), wk =   0.0156250
        k(   26) = (   0.6250000  -0.1250000   0.8750000), wk =   0.0312500
        k(   27) = (   0.5000000   0.0000000   0.7500000), wk =   0.0312500
        k(   28) = (  -0.2500000  -1.0000000   0.0000000), wk =   0.0156250
        k(   29) = (  -0.5000000  -1.0000000   0.0000000), wk =   0.0156250
        k(   30) = (   0.1250000   0.1250000  -0.1250000), wk =   0.0156250
        k(   31) = (   0.2500000   0.2500000  -0.2500000), wk =   0.0156250
        k(   32) = (   0.3750000   0.3750000  -0.3750000), wk =   0.0156250
        k(   33) = (  -0.5000000  -0.5000000   0.5000000), wk =   0.0078125
        k(   34) = (   0.0000000   0.0000000   0.2500000), wk =   0.0078125
        k(   35) = (   0.3750000   0.1250000  -0.1250000), wk =   0.0312500
        k(   36) = (   0.1250000  -0.1250000   0.3750000), wk =   0.0156250
        k(   37) = (   0.1250000   0.1250000  -0.3750000), wk =   0.0156250
        k(   38) = (   0.5000000   0.2500000  -0.2500000), wk =   0.0312500
        k(   39) = (   0.2500000  -0.2500000   0.5000000), wk =   0.0156250
        k(   40) = (   0.2500000   0.2500000  -0.5000000), wk =   0.0156250
        k(   41) = (  -0.3750000  -0.6250000   0.6250000), wk =   0.0312500
        k(   42) = (  -0.6250000   0.6250000  -0.3750000), wk =   0.0156250
        k(   43) = (  -0.6250000  -0.6250000   0.3750000), wk =   0.0156250
        k(   44) = (  -0.2500000  -0.5000000   0.5000000), wk =   0.0312500
        k(   45) = (  -0.5000000   0.5000000  -0.2500000), wk =   0.0156250
        k(   46) = (  -0.5000000  -0.5000000   0.2500000), wk =   0.0156250
        k(   47) = (  -0.1250000  -0.3750000   0.3750000), wk =   0.0312500
        k(   48) = (  -0.3750000   0.3750000  -0.1250000), wk =   0.0156250
        k(   49) = (  -0.3750000  -0.3750000   0.1250000), wk =   0.0156250
        k(   50) = (  -0.2500000   0.2500000   0.0000000), wk =   0.0078125
        k(   51) = (  -0.2500000  -0.2500000   0.0000000), wk =   0.0078125
        k(   52) = (   0.0000000   0.0000000   0.5000000), wk =   0.0078125
        k(   53) = (   0.6250000   0.1250000  -0.1250000), wk =   0.0312500
        k(   54) = (   0.1250000  -0.1250000   0.6250000), wk =   0.0156250
        k(   55) = (   0.1250000   0.1250000  -0.6250000), wk =   0.0156250
        k(   56) = (  -0.2500000  -0.7500000   0.7500000), wk =   0.0312500
        k(   57) = (  -0.7500000   0.7500000  -0.2500000), wk =   0.0156250
        k(   58) = (  -0.7500000  -0.7500000   0.2500000), wk =   0.0156250
        k(   59) = (  -0.1250000  -0.6250000   0.6250000), wk =   0.0312500
        k(   60) = (  -0.6250000   0.6250000  -0.1250000), wk =   0.0156250
        k(   61) = (  -0.6250000  -0.6250000   0.1250000), wk =   0.0156250
        k(   62) = (  -0.5000000   0.5000000   0.0000000), wk =   0.0078125
        k(   63) = (  -0.5000000  -0.5000000   0.0000000), wk =   0.0078125
        k(   64) = (   0.0000000   0.0000000   0.7500000), wk =   0.0078125
        k(   65) = (  -0.1250000  -0.8750000   0.8750000), wk =   0.0312500
        k(   66) = (  -0.8750000   0.8750000  -0.1250000), wk =   0.0156250
        k(   67) = (  -0.8750000  -0.8750000   0.1250000), wk =   0.0156250
        k(   68) = (  -0.7500000   0.7500000   0.0000000), wk =   0.0078125
        k(   69) = (  -0.7500000  -0.7500000   0.0000000), wk =   0.0078125
        k(   70) = (   0.0000000   0.0000000  -1.0000000), wk =   0.0039062
        k(   71) = (   0.5000000   0.2500000   0.0000000), wk =   0.0156250
        k(   72) = (   0.0000000  -0.5000000  -0.2500000), wk =   0.0312500
        k(   73) = (   0.2500000   0.0000000   0.5000000), wk =   0.0312500
        k(   74) = (  -0.3750000  -0.6250000   0.8750000), wk =   0.0312500
        k(   75) = (   0.8750000   0.3750000   0.6250000), wk =   0.0312500
        k(   76) = (  -0.8750000   0.3750000  -0.6250000), wk =   0.0312500
        k(   77) = (  -0.6250000   0.8750000  -0.3750000), wk =   0.0312500
        k(   78) = (  -0.6250000  -0.8750000   0.3750000), wk =   0.0312500
        k(   79) = (  -0.2500000  -0.5000000   0.7500000), wk =   0.0312500
        k(   80) = (   0.7500000   0.2500000   0.5000000), wk =   0.0156250
        k(   81) = (  -0.7500000   0.2500000  -0.5000000), wk =   0.0156250
        k(   82) = (  -0.2500000  -0.7500000   1.0000000), wk =   0.0156250
        k(   83) = (   1.0000000   0.2500000   0.7500000), wk =   0.0312500
        k(   84) = (  -0.7500000   1.0000000  -0.2500000), wk =   0.0312500
        k(   85) = (  -0.1250000  -0.6250000   0.8750000), wk =   0.0312500
        k(   86) = (   0.8750000   0.1250000   0.6250000), wk =   0.0312500
        k(   87) = (  -0.8750000   0.1250000  -0.6250000), wk =   0.0312500
        k(   88) = (  -0.6250000   0.8750000  -0.1250000), wk =   0.0312500
        k(   89) = (  -0.6250000  -0.8750000   0.1250000), wk =   0.0312500
        k(   90) = (   0.7500000   0.0000000   0.5000000), wk =   0.0312500
        k(   91) = (  -0.5000000   0.7500000   0.0000000), wk =   0.0156250
        k(   92) = (  -0.5000000  -0.7500000   0.0000000), wk =   0.0156250
        k(   93) = (   0.0000000   1.0000000  -0.2500000), wk =   0.0156250
        k(   94) = (   0.2500000   0.0000000  -1.0000000), wk =   0.0156250
        k(   95) = (   0.0000000   1.0000000  -0.5000000), wk =   0.0078125

     Dense  grid:    29603 G-vectors     FFT dimensions: (  45,  45,  45)

     Estimated max dynamical RAM per process >     183.76 MB

     Check: negative core charge=   -0.000001

     Initial potential from superposition of free atoms

     starting charge      27.9983, renormalised to      28.0000
     Starting wfcs are   18 randomized atomic wfcs

     total cpu time spent up to now is        4.2 secs

     Self-consistent Calculation

     iteration #  1     ecut=    80.00 Ry     beta= 0.70
     Davidson diagonalization with overlap
     ethr =  1.00E-02,  avg # of iterations =  1.9

     Threshold (ethr) on eigenvalues was too large:
     Diagonalizing with lowered threshold

     Davidson diagonalization with overlap
     ethr =  1.17E-04,  avg # of iterations =  2.0

     total cpu time spent up to now is       22.0 secs

     total energy              =    -427.26531007 Ry
     estimated scf accuracy    <       0.03440369 Ry

     iteration #  2     ecut=    80.00 Ry     beta= 0.70
     Davidson diagonalization with overlap
     ethr =  1.23E-04,  avg # of iterations =  1.1

     total cpu time spent up to now is       30.4 secs

     total energy              =    -427.26633273 Ry
     estimated scf accuracy    <       0.00180198 Ry

     iteration #  3     ecut=    80.00 Ry     beta= 0.70
     Davidson diagonalization with overlap
     ethr =  6.44E-06,  avg # of iterations =  2.4

     total cpu time spent up to now is       39.9 secs

     total energy              =    -427.26649836 Ry
     estimated scf accuracy    <       0.00003838 Ry

     iteration #  4     ecut=    80.00 Ry     beta= 0.70
     Davidson diagonalization with overlap
     ethr =  1.37E-07,  avg # of iterations =  3.5

     total cpu time spent up to now is       51.5 secs

     total energy              =    -427.26651388 Ry
     estimated scf accuracy    <       0.00000406 Ry

     iteration #  5     ecut=    80.00 Ry     beta= 0.70
     Davidson diagonalization with overlap
     ethr =  1.45E-08,  avg # of iterations =  2.7

     total cpu time spent up to now is       62.7 secs

     End of self-consistent calculation

          k = 0.0000 0.0000 0.0000 (  3695 PWs)   bands (ev):

   -16.4853 -16.4817 -16.4181 -16.3845 -16.3578 -16.2090 -16.1789 -16.1764
   -16.1491 -16.1454  -4.3917   7.1568   8.4915   8.6876

          k =-0.1250 0.1250-0.1250 (  3716 PWs)   bands (ev):

   -16.4847 -16.4840 -16.4136 -16.3810 -16.3540 -16.2125 -16.1869 -16.1766
   -16.1456 -16.1452  -4.2165   6.5441   6.9732   8.7302

          k =-0.2500 0.2500-0.2500 (  3693 PWs)   bands (ev):

   -16.4900 -16.4799 -16.4049 -16.3749 -16.3422 -16.2241 -16.2002 -16.1757
   -16.1459 -16.1415  -3.7199   4.2551   6.6046   8.2690

          k =-0.3750 0.3750-0.3750 (  3693 PWs)   bands (ev):

   -16.4936 -16.4745 -16.3985 -16.3715 -16.3260 -16.2403 -16.2093 -16.1722
   -16.1485 -16.1401  -3.0413   2.4297   6.3043   7.9446

          k = 0.5000-0.5000 0.5000 (  3708 PWs)   bands (ev):

   -16.4948 -16.4719 -16.3964 -16.3708 -16.3175 -16.2487 -16.2125 -16.1695
   -16.1506 -16.1399  -2.6478   1.6457   6.1937   7.8351

          k = 0.0000 0.2500 0.0000 (  3691 PWs)   bands (ev):

   -16.5027 -16.4958 -16.4194 -16.3631 -16.3422 -16.2279 -16.2051 -16.1488
   -16.1391 -16.1375  -4.1405   5.5766   7.7034   7.9349

          k =-0.1250 0.3750-0.1250 (  3683 PWs)   bands (ev):

   -16.5083 -16.4918 -16.4112 -16.3552 -16.3306 -16.2432 -16.2114 -16.1573
   -16.1407 -16.1283  -3.7499   4.6575   6.2104   7.3525

          k =-0.2500 0.5000-0.2500 (  3698 PWs)   bands (ev):

   -16.5140 -16.4866 -16.3998 -16.3462 -16.3191 -16.2551 -16.2239 -16.1686
   -16.1373 -16.1225  -3.1071   2.9485   5.4767   7.0920

          k = 0.6250-0.3750 0.6250 (  3697 PWs)   bands (ev):

   -16.5169 -16.4831 -16.3906 -16.3435 -16.3180 -16.2530 -16.2329 -16.1780
   -16.1318 -16.1222  -2.5298   1.7609   5.1161   7.1133

          k = 0.5000-0.2500 0.5000 (  3701 PWs)   bands (ev):

   -16.5166 -16.4826 -16.3908 -16.3468 -16.3287 -16.2380 -16.2338 -16.1776
   -16.1331 -16.1226  -2.6562   1.9639   5.0542   7.4114

          k = 0.3750-0.1250 0.3750 (  3702 PWs)   bands (ev):

   -16.5134 -16.4851 -16.4012 -16.3505 -16.3422 -16.2278 -16.2229 -16.1656
   -16.1425 -16.1229  -3.3142   3.3140   5.3873   7.9086

          k = 0.2500 0.0000 0.2500 (  3681 PWs)   bands (ev):

   -16.5082 -16.4898 -16.4130 -16.3571 -16.3505 -16.2194 -16.2119 -16.1517
   -16.1502 -16.1272  -3.8999   4.7044   6.4902   8.4235

          k = 0.0000 0.5000 0.0000 (  3655 PWs)   bands (ev):

   -16.5347 -16.5202 -16.4156 -16.3288 -16.3028 -16.2728 -16.2240 -16.1490
   -16.1146 -16.1080  -3.3957   3.4275   6.5199   6.6974

          k =-0.1250 0.6250-0.1250 (  3675 PWs)   bands (ev):

   -16.5419 -16.5139 -16.4014 -16.3164 -16.3017 -16.2781 -16.2347 -16.1658
   -16.1152 -16.0977  -2.8252   2.5996   5.2444   6.2991

          k = 0.7500-0.2500 0.7500 (  3685 PWs)   bands (ev):

   -16.5483 -16.5083 -16.3838 -16.3251 -16.3014 -16.2647 -16.2426 -16.1856
   -16.1148 -16.0891  -2.1607   1.6126   4.2680   6.3012

          k = 0.6250-0.1250 0.6250 (  3694 PWs)   bands (ev):

   -16.5507 -16.5055 -16.3745 -16.3445 -16.3016 -16.2594 -16.2286 -16.1964
   -16.1159 -16.0861  -1.9957   1.3159   3.9618   6.6134

          k = 0.5000 0.0000 0.5000 (  3709 PWs)   bands (ev):

   -16.5481 -16.5060 -16.3881 -16.3501 -16.3140 -16.2483 -16.2177 -16.1829
   -16.1208 -16.0893  -2.5641   1.8927   4.5152   7.1517

          k = 0.0000 0.7500 0.0000 (  3687 PWs)   bands (ev):

   -16.5551 -16.5446 -16.3981 -16.3220 -16.2983 -16.2534 -16.2453 -16.1695
   -16.0892 -16.0839  -2.1877   1.3357   5.7631   5.8523

          k = 0.8750-0.1250 0.8750 (  3699 PWs)   bands (ev):

   -16.5636 -16.5367 -16.3778 -16.3461 -16.2814 -16.2626 -16.2301 -16.1918
   -16.0945 -16.0729  -1.5127   0.5827   4.8582   5.7332

          k = 0.7500 0.0000 0.7500 (  3703 PWs)   bands (ev):

   -16.5693 -16.5311 -16.3656 -16.3584 -16.2833 -16.2630 -16.2120 -16.2091
   -16.0993 -16.0658  -1.1274   0.1330   4.1775   5.9865

          k = 0.0000-1.0000 0.0000 (  3692 PWs)   bands (ev):

   -16.5582 -16.5582 -16.3658 -16.3658 -16.2705 -16.2702 -16.2063 -16.2063
   -16.0767 -16.0767  -0.5775  -0.5774   5.5324   5.5324

          k =-0.2500 0.5000 0.0000 (  3685 PWs)   bands (ev):

   -16.5131 -16.4889 -16.4023 -16.3475 -16.3054 -16.2705 -16.2206 -16.1677
   -16.1329 -16.1252  -3.2828   3.8329   5.5398   6.0959

          k = 0.6250-0.3750 0.8750 (  3692 PWs)   bands (ev):

   -16.5182 -16.4836 -16.3910 -16.3399 -16.3036 -16.2713 -16.2344 -16.1778
   -16.1309 -16.1193  -2.6222   2.4613   4.8573   5.7877

          k = 0.5000-0.2500 0.7500 (  3674 PWs)   bands (ev):

   -16.5207 -16.4788 -16.3824 -16.3427 -16.3265 -16.2458 -16.2383 -16.1843
   -16.1308 -16.1176  -2.1869   1.6161   4.5971   5.8762

          k = 0.7500-0.2500 1.0000 (  3683 PWs)   bands (ev):

   -16.5480 -16.5069 -16.3882 -16.3240 -16.3020 -16.2576 -16.2513 -16.1788
   -16.1165 -16.0904  -2.2216   1.7979   5.0139   5.2040

          k = 0.6250-0.1250 0.8750 (  3697 PWs)   bands (ev):

   -16.5537 -16.4994 -16.3729 -16.3495 -16.2921 -16.2672 -16.2301 -16.1937
   -16.1196 -16.0832  -1.6286   1.0013   4.2102   5.3054

          k = 0.5000 0.0000 0.7500 (  3693 PWs)   bands (ev):

   -16.5558 -16.4945 -16.3725 -16.3633 -16.3009 -16.2639 -16.2041 -16.2008
   -16.1250 -16.0808  -1.6958   0.9085   4.0659   5.8619

          k =-0.2500-1.0000 0.0000 (  3698 PWs)   bands (ev):

   -16.5707 -16.5266 -16.3715 -16.3604 -16.2801 -16.2651 -16.2081 -16.2051
   -16.1037 -16.0650  -0.8703  -0.1470   4.8451   5.1829

          k =-0.5000-1.0000 0.0000 (  3704 PWs)   bands (ev):

   -16.5588 -16.4890 -16.3746 -16.3596 -16.2851 -16.2816 -16.2045 -16.2023
   -16.1269 -16.0774  -1.1005   0.3318   4.1776   4.9360

          k = 0.1250 0.1250-0.1250 (  3716 PWs)   bands (ev):

   -16.5033 -16.4943 -16.4202 -16.3640 -16.3493 -16.2168 -16.2074 -16.1497
   -16.1428 -16.1344  -4.1934   5.4511   7.9081   8.9933

          k = 0.2500 0.2500-0.2500 (  3693 PWs)   bands (ev):

   -16.5357 -16.5168 -16.4195 -16.3374 -16.3357 -16.2286 -16.2250 -16.1406
   -16.1298 -16.1031  -3.6080   3.1544   7.2474   8.3136

          k = 0.3750 0.3750-0.3750 (  3693 PWs)   bands (ev):

   -16.5568 -16.5394 -16.4120 -16.3396 -16.3225 -16.2290 -16.2284 -16.1431
   -16.1107 -16.0806  -2.6960   1.1368   6.7883   7.9063

          k =-0.5000-0.5000 0.5000 (  3708 PWs)   bands (ev):

   -16.5631 -16.5494 -16.4059 -16.3460 -16.3201 -16.2283 -16.2243 -16.1457
   -16.1024 -16.0728  -1.9707   0.0333   6.6287   7.7723

          k = 0.0000 0.0000 0.2500 (  3691 PWs)   bands (ev):

   -16.4855 -16.4830 -16.4114 -16.3759 -16.3639 -16.2001 -16.1996 -16.1697
   -16.1514 -16.1426  -4.1446   6.2137   6.6508   8.1461

          k = 0.3750 0.1250-0.1250 (  3683 PWs)   bands (ev):

   -16.5321 -16.5216 -16.4220 -16.3363 -16.3217 -16.2484 -16.2208 -16.1410
   -16.1207 -16.1083  -3.6731   3.5966   6.9803   7.7510

          k = 0.1250-0.1250 0.3750 (  3683 PWs)   bands (ev):

   -16.4901 -16.4789 -16.4029 -16.3723 -16.3596 -16.2169 -16.1963 -16.1653
   -16.1554 -16.1412  -3.7373   4.5616   6.2353   7.3666

          k = 0.1250 0.1250-0.3750 (  3683 PWs)   bands (ev):

   -16.5122 -16.4845 -16.4072 -16.3627 -16.3515 -16.2254 -16.2000 -16.1560
   -16.1531 -16.1241  -3.7063   4.1008   6.4481   7.5088

          k = 0.5000 0.2500-0.2500 (  3698 PWs)   bands (ev):

   -16.5538 -16.5441 -16.4155 -16.3249 -16.3172 -16.2486 -16.2280 -16.1456
   -16.1022 -16.0831  -2.8465   1.6341   6.4146   7.1216

          k = 0.2500-0.2500 0.5000 (  3698 PWs)   bands (ev):

   -16.4944 -16.4732 -16.3950 -16.3723 -16.3437 -16.2310 -16.2036 -16.1685
   -16.1521 -16.1402  -3.0867   2.7993   5.9685   6.6551

          k = 0.2500 0.2500-0.5000 (  3698 PWs)   bands (ev):

   -16.5477 -16.5009 -16.4030 -16.3584 -16.3248 -16.2396 -16.2071 -16.1515
   -16.1434 -16.0902  -2.9111   1.9500   5.9147   7.2105

          k =-0.3750-0.6250 0.6250 (  3697 PWs)   bands (ev):

   -16.5669 -16.5469 -16.4037 -16.3399 -16.3156 -16.2326 -16.2293 -16.1545
   -16.0988 -16.0694  -1.9114   0.1785   6.0171   6.9051

          k =-0.6250 0.6250-0.3750 (  3697 PWs)   bands (ev):

   -16.4969 -16.4708 -16.3908 -16.3702 -16.3252 -16.2434 -16.2149 -16.1758
   -16.1455 -16.1380  -2.5381   1.7392   5.9451   6.1616

          k =-0.6250-0.6250 0.3750 (  3697 PWs)   bands (ev):

   -16.5704 -16.5223 -16.4037 -16.3494 -16.3184 -16.2342 -16.2187 -16.1476
   -16.1273 -16.0668  -1.9571   0.2960   5.5605   7.2735

          k =-0.2500-0.5000 0.5000 (  3701 PWs)   bands (ev):

   -16.5637 -16.5329 -16.4001 -16.3486 -16.3161 -16.2357 -16.2201 -16.1595
   -16.1100 -16.0736  -2.2500   0.6999   5.8517   7.1322

          k =-0.5000 0.5000-0.2500 (  3701 PWs)   bands (ev):

   -16.4971 -16.4737 -16.3915 -16.3694 -16.3083 -16.2596 -16.2134 -16.1827
   -16.1400 -16.1369  -2.7164   2.1290   5.9371   6.1658

          k =-0.5000-0.5000 0.2500 (  3701 PWs)   bands (ev):

   -16.5731 -16.5383 -16.4145 -16.3268 -16.3200 -16.2404 -16.2285 -16.1401
   -16.1120 -16.0642  -2.1396   0.4784   5.5555   7.6802

          k =-0.1250-0.3750 0.3750 (  3702 PWs)   bands (ev):

   -16.5420 -16.5102 -16.4079 -16.3465 -16.3274 -16.2356 -16.2183 -16.1567
   -16.1283 -16.0961  -3.2098   2.5451   6.0032   7.6958

          k =-0.3750 0.3750-0.1250 (  3702 PWs)   bands (ev):

   -16.4945 -16.4786 -16.3974 -16.3729 -16.3158 -16.2529 -16.2020 -16.1856
   -16.1389 -16.1380  -3.3758   3.7311   6.0230   6.5533

          k =-0.3750-0.3750 0.1250 (  3702 PWs)   bands (ev):

   -16.5560 -16.5410 -16.4247 -16.3250 -16.3059 -16.2606 -16.2266 -16.1344
   -16.1071 -16.0829  -3.1220   2.0972   6.0004   8.3755

          k =-0.2500 0.2500 0.0000 (  3681 PWs)   bands (ev):

   -16.4892 -16.4824 -16.4069 -16.3787 -16.3371 -16.2312 -16.1892 -16.1830
   -16.1438 -16.1400  -3.9432   5.7185   6.6186   6.9188

          k =-0.2500-0.2500 0.0000 (  3681 PWs)   bands (ev):

   -16.5279 -16.5254 -16.4268 -16.3395 -16.3227 -16.2439 -16.2209 -16.1352
   -16.1172 -16.1147  -3.8471   3.8922   6.9964   9.1748

          k = 0.0000 0.0000 0.5000 (  3655 PWs)   bands (ev):

   -16.4941 -16.4741 -16.3936 -16.3768 -16.3584 -16.2325 -16.1804 -16.1673
   -16.1539 -16.1443  -3.4200   3.9275   5.7696   6.8109

          k = 0.6250 0.1250-0.1250 (  3675 PWs)   bands (ev):

   -16.5519 -16.5474 -16.4111 -16.3138 -16.3031 -16.2681 -16.2335 -16.1542
   -16.0942 -16.0844  -2.6704   1.8069   5.9650   6.3433

          k = 0.1250-0.1250 0.6250 (  3675 PWs)   bands (ev):

   -16.4983 -16.4675 -16.3839 -16.3791 -16.3510 -16.2424 -16.1821 -16.1770
   -16.1455 -16.1445  -2.8272   2.6859   5.4710   5.9916

          k = 0.1250 0.1250-0.6250 (  3675 PWs)   bands (ev):

   -16.5215 -16.4702 -16.3913 -16.3727 -16.3346 -16.2539 -16.1884 -16.1620
   -16.1580 -16.1166  -2.7712   2.4442   5.0826   6.4474

          k =-0.2500-0.7500 0.7500 (  3685 PWs)   bands (ev):

   -16.5698 -16.5460 -16.3973 -16.3315 -16.3038 -16.2434 -16.2367 -16.1693
   -16.0931 -16.0656  -1.6852   0.3645   5.1227   6.1913

          k =-0.7500 0.7500-0.2500 (  3685 PWs)   bands (ev):

   -16.5010 -16.4658 -16.3785 -16.3711 -16.3429 -16.2421 -16.2055 -16.1857
   -16.1385 -16.1376  -2.2104   1.7073   5.0853   5.4445

          k =-0.7500-0.7500 0.2500 (  3685 PWs)   bands (ev):

   -16.5586 -16.4836 -16.3986 -16.3563 -16.3098 -16.2617 -16.2070 -16.1557
   -16.1519 -16.0781  -1.8366   0.7961   4.3912   6.4698

          k =-0.1250-0.6250 0.6250 (  3694 PWs)   bands (ev):

   -16.5692 -16.5296 -16.3828 -16.3511 -16.3020 -16.2475 -16.2189 -16.1862
   -16.1042 -16.0666  -1.6114   0.3699   4.5408   6.5066

          k =-0.6250 0.6250-0.1250 (  3694 PWs)   bands (ev):

   -16.5015 -16.4702 -16.3792 -16.3657 -16.3209 -16.2486 -16.2243 -16.1915
   -16.1341 -16.1331  -2.1909   1.8186   4.5236   5.6954

          k =-0.6250-0.6250 0.1250 (  3694 PWs)   bands (ev):

   -16.5803 -16.5083 -16.4103 -16.3318 -16.3149 -16.2393 -16.2324 -16.1424
   -16.1415 -16.0555  -1.3047  -0.0497   4.1998   6.8738

          k =-0.5000 0.5000 0.0000 (  3709 PWs)   bands (ev):

   -16.4993 -16.4754 -16.3865 -16.3682 -16.2871 -16.2824 -16.2140 -16.1917
   -16.1341 -16.1338  -2.7800   2.9209   4.6049   6.1387

          k =-0.5000-0.5000 0.0000 (  3709 PWs)   bands (ev):

   -16.5789 -16.5314 -16.4209 -16.3199 -16.3022 -16.2632 -16.2288 -16.1355
   -16.1191 -16.0581  -2.2733   0.9686   4.7088   7.5971

          k = 0.0000 0.0000 0.7500 (  3687 PWs)   bands (ev):

   -16.5020 -16.4581 -16.3880 -16.3728 -16.3539 -16.2482 -16.1862 -16.1624
   -16.1575 -16.1388  -2.2983   1.8426   5.1155   5.9814

          k =-0.1250-0.8750 0.8750 (  3699 PWs)   bands (ev):

   -16.5663 -16.5502 -16.3853 -16.3425 -16.2879 -16.2542 -16.2292 -16.1855
   -16.0860 -16.0684  -1.2322   0.0904   5.1371   5.7131

          k =-0.8750 0.8750-0.1250 (  3699 PWs)   bands (ev):

   -16.5041 -16.4554 -16.3812 -16.3672 -16.3578 -16.2449 -16.1929 -16.1839
   -16.1445 -16.1341  -1.7142   1.0780   5.0343   5.2685

          k =-0.8750-0.8750 0.1250 (  3699 PWs)   bands (ev):

   -16.5275 -16.4566 -16.3939 -16.3614 -16.3294 -16.2676 -16.1980 -16.1649
   -16.1548 -16.1097  -1.5684   0.8208   4.3709   5.8998

          k =-0.7500 0.7500 0.0000 (  3703 PWs)   bands (ev):

   -16.5041 -16.4628 -16.3696 -16.3624 -16.3530 -16.2370 -16.2153 -16.1951
   -16.1350 -16.1322  -1.6773   1.1817   4.4540   5.2502

          k =-0.7500-0.7500 0.0000 (  3703 PWs)   bands (ev):

   -16.5628 -16.4757 -16.4020 -16.3468 -16.2989 -16.2762 -16.2143 -16.1612
   -16.1480 -16.0730  -0.7960  -0.1955   3.7667   6.2131

          k = 0.0000 0.0000-1.0000 (  3692 PWs)   bands (ev):

   -16.5052 -16.4474 -16.3922 -16.3628 -16.3611 -16.2456 -16.1954 -16.1672
   -16.1553 -16.1326  -1.3802   0.5959   4.8826   5.7005

          k = 0.5000 0.2500 0.0000 (  3685 PWs)   bands (ev):

   -16.5557 -16.5419 -16.4232 -16.3220 -16.2881 -16.2802 -16.2278 -16.1383
   -16.1036 -16.0830  -3.0611   2.2135   5.8219   7.6283

          k = 0.0000-0.5000-0.2500 (  3685 PWs)   bands (ev):

   -16.5394 -16.5156 -16.4079 -16.3295 -16.3178 -16.2560 -16.2251 -16.1595
   -16.1188 -16.0992  -3.1788   2.9057   5.5378   7.1805

          k = 0.2500 0.0000 0.5000 (  3685 PWs)   bands (ev):

   -16.5169 -16.4789 -16.3959 -16.3663 -16.3417 -16.2390 -16.1978 -16.1685
   -16.1469 -16.1206  -3.1991   3.1685   5.3431   6.9828

          k =-0.3750-0.6250 0.8750 (  3692 PWs)   bands (ev):

   -16.5761 -16.5356 -16.4150 -16.3160 -16.3138 -16.2530 -16.2317 -16.1462
   -16.1097 -16.0606  -2.1188   0.7660   4.9946   6.9922

          k = 0.8750 0.3750 0.6250 (  3692 PWs)   bands (ev):

   -16.5591 -16.5416 -16.3957 -16.3348 -16.3061 -16.2497 -16.2287 -16.1717
   -16.0954 -16.0775  -2.2822   1.1375   5.3262   6.3451

          k =-0.8750 0.3750-0.6250 (  3692 PWs)   bands (ev):

   -16.5459 -16.5112 -16.3885 -16.3276 -16.3081 -16.2624 -16.2326 -16.1831
   -16.1144 -16.0914  -2.4977   1.9737   4.3994   6.8373

          k =-0.6250 0.8750-0.3750 (  3692 PWs)   bands (ev):

   -16.5201 -16.4767 -16.3831 -16.3608 -16.3334 -16.2469 -16.2106 -16.1828
   -16.1358 -16.1186  -2.5268   2.0676   4.6891   6.3414

          k =-0.6250-0.8750 0.3750 (  3692 PWs)   bands (ev):

   -16.5533 -16.4945 -16.3915 -16.3615 -16.3148 -16.2517 -16.2043 -16.1736
   -16.1346 -16.0839  -2.3349   1.3875   4.7908   6.6299

          k =-0.2500-0.5000 0.7500 (  3674 PWs)   bands (ev):

   -16.5756 -16.5168 -16.4011 -16.3430 -16.3120 -16.2403 -16.2238 -16.1618
   -16.1226 -16.0605  -1.4806   0.0571   4.6850   6.5956

          k = 0.7500 0.2500 0.5000 (  3674 PWs)   bands (ev):

   -16.5632 -16.5547 -16.3865 -16.3438 -16.3037 -16.2419 -16.2286 -16.1786
   -16.0846 -16.0710  -1.5322   0.0756   5.4065   5.8758

          k =-0.7500 0.2500-0.5000 (  3674 PWs)   bands (ev):

   -16.5485 -16.5098 -16.3779 -16.3289 -16.3017 -16.2657 -16.2357 -16.1949
   -16.1125 -16.0883  -2.0952   1.4158   4.0727   6.6865

          k =-0.2500-0.7500 1.0000 (  3683 PWs)   bands (ev):

   -16.5732 -16.5404 -16.4052 -16.3223 -16.3040 -16.2470 -16.2405 -16.1621
   -16.0993 -16.0626  -1.8070   0.6326   5.0630   6.1004

          k = 1.0000 0.2500 0.7500 (  3683 PWs)   bands (ev):

   -16.5587 -16.5433 -16.3895 -16.3258 -16.2953 -16.2593 -16.2388 -16.1804
   -16.0899 -16.0780  -2.0261   1.1516   4.9882   5.8072

          k =-0.7500 1.0000-0.2500 (  3683 PWs)   bands (ev):

   -16.5246 -16.4661 -16.3830 -16.3694 -16.3302 -16.2612 -16.1920 -16.1822
   -16.1440 -16.1133  -2.1340   1.5876   4.6192   5.7561

          k =-0.1250-0.6250 0.8750 (  3697 PWs)   bands (ev):

   -16.5757 -16.5188 -16.3902 -16.3448 -16.2981 -16.2509 -16.2224 -16.1826
   -16.1130 -16.0597  -0.9109  -0.2196   4.3563   5.7052

          k = 0.8750 0.1250 0.6250 (  3697 PWs)   bands (ev):

   -16.5641 -16.5564 -16.3721 -16.3435 -16.2878 -16.2559 -16.2293 -16.1984
   -16.0785 -16.0694  -1.0783  -0.0387   4.7236   5.3132

          k =-0.8750 0.1250-0.6250 (  3697 PWs)   bands (ev):

   -16.5650 -16.5394 -16.3677 -16.3408 -16.2786 -16.2701 -16.2295 -16.2058
   -16.0907 -16.0700  -1.4307   0.5761   4.1264   5.7045

          k =-0.6250 0.8750-0.1250 (  3697 PWs)   bands (ev):

   -16.5251 -16.4702 -16.3707 -16.3599 -16.3303 -16.2584 -16.2117 -16.1929
   -16.1336 -16.1121  -1.6954   1.1615   4.4616   4.9972

          k =-0.6250-0.8750 0.1250 (  3697 PWs)   bands (ev):

   -16.5608 -16.4819 -16.3930 -16.3526 -16.2996 -16.2723 -16.2100 -16.1769
   -16.1374 -16.0753  -1.2163   0.2811   3.9894   5.7869

          k = 0.7500 0.0000 0.5000 (  3693 PWs)   bands (ev):

   -16.5649 -16.5389 -16.3718 -16.3425 -16.2890 -16.2612 -16.2262 -16.2012
   -16.0922 -16.0702  -1.6078   0.6688   4.2073   5.9271

          k =-0.5000 0.7500 0.0000 (  3693 PWs)   bands (ev):

   -16.5228 -16.4774 -16.3793 -16.3336 -16.3290 -16.2486 -16.2445 -16.1874
   -16.1295 -16.1144  -2.0041   1.7066   4.3494   5.0908

          k =-0.5000-0.7500 0.0000 (  3693 PWs)   bands (ev):

   -16.5803 -16.5094 -16.4063 -16.3318 -16.3099 -16.2430 -16.2328 -16.1607
   -16.1272 -16.0551  -1.0880  -0.1286   4.0865   6.2585

          k = 0.0000 1.0000-0.2500 (  3698 PWs)   bands (ev):

   -16.5598 -16.5598 -16.3595 -16.3595 -16.2711 -16.2708 -16.2131 -16.2131
   -16.0742 -16.0741  -0.5345  -0.5344   5.0516   5.0516

          k = 0.2500 0.0000-1.0000 (  3698 PWs)   bands (ev):

   -16.5277 -16.4597 -16.3838 -16.3616 -16.3299 -16.2660 -16.1988 -16.1841
   -16.1424 -16.1092  -1.2972   0.5731   4.3813   5.3046

          k = 0.0000 1.0000-0.5000 (  3704 PWs)   bands (ev):

   -16.5614 -16.5614 -16.3527 -16.3527 -16.2719 -16.2716 -16.2200 -16.2200
   -16.0717 -16.0717  -0.4895  -0.4894   4.6840   4.6840

     highest occupied level (ev):     9.1748

!    total energy              =    -427.26651463 Ry
     estimated scf accuracy    <       0.00000019 Ry

     The total energy is the sum of the following terms:
     one-electron contribution =    -279.54717735 Ry
     hartree contribution      =     165.70735437 Ry
     xc contribution           =    -116.64269957 Ry
     ewald contribution        =    -196.78399207 Ry

     convergence has been achieved in   5 iterations

     Forces acting on atoms (cartesian axes, Ry/au):

     atom    1 type  1   force =     0.00000000    0.00000000   -0.11881234
     atom    2 type  1   force =     0.00000000    0.00000000    0.11881234

     Total force =     0.168026     Total SCF correction =     0.002313

     Writing all to output data dir ./temp/Germanium.save/

     init_run     :      3.98s CPU      4.10s WALL (       1 calls)
     electrons    :     57.11s CPU     58.52s WALL (       1 calls)
     forces       :      0.62s CPU      0.87s WALL (       1 calls)

     Called by init_run:
     wfcinit      :      3.40s CPU      3.52s WALL (       1 calls)
     potinit      :      0.04s CPU      0.04s WALL (       1 calls)
     hinit0       :      0.41s CPU      0.41s WALL (       1 calls)

     Called by electrons:
     c_bands      :     46.80s CPU     47.89s WALL (       6 calls)
     sum_band     :      9.86s CPU     10.11s WALL (       6 calls)
     v_of_rho     :      0.19s CPU      0.19s WALL (       6 calls)
     newd         :      0.34s CPU      0.37s WALL (       6 calls)
     mix_rho      :      0.01s CPU      0.01s WALL (       6 calls)

     Called by c_bands:
     init_us_2    :      1.74s CPU      1.81s WALL (    1330 calls)
     init_us_2:cp :      1.73s CPU      1.81s WALL (    1330 calls)
     cegterg      :     36.51s CPU     37.56s WALL (     570 calls)

     Called by *egterg:
     cdiaghg      :      0.25s CPU      0.25s WALL (    1760 calls)
     h_psi        :     35.20s CPU     35.76s WALL (    1950 calls)
     s_psi        :      0.55s CPU      0.65s WALL (    1950 calls)
     g_psi        :      0.37s CPU      0.37s WALL (    1285 calls)

     Called by h_psi:
     h_psi:calbec :      0.74s CPU      1.06s WALL (    1950 calls)
     vloc_psi     :     33.77s CPU     33.86s WALL (    1950 calls)
     add_vuspsi   :      0.58s CPU      0.69s WALL (    1950 calls)

     General routines
     calbec       :      1.14s CPU      1.84s WALL (    2900 calls)
     fft          :      0.06s CPU      0.06s WALL (      78 calls)
     ffts         :      0.00s CPU      0.00s WALL (       6 calls)
     fftw         :     22.62s CPU     22.68s WALL (   50606 calls)

     Parallel routines

     PWSCF        :   1m 1.82s CPU   1m 3.69s WALL


   This run was terminated on:  18:52:18  18Mar2022            

=------------------------------------------------------------------------------=
   JOB DONE.
=------------------------------------------------------------------------------=
