
     Program PWSCF v.7.0 starts on 19Mar2022 at 18: 6:36 

     This program is part of the open-source Quantum ESPRESSO suite
     for quantum simulation of materials; please cite
         "P. Giannozzi et al., J. Phys.:Condens. Matter 21 395502 (2009);
         "P. Giannozzi et al., J. Phys.:Condens. Matter 29 465901 (2017);
         "P. Giannozzi et al., J. Chem. Phys. 152 154105 (2020);
          URL http://www.quantum-espresso.org", 
     in publications or presentations arising from this work. More details at
     http://www.quantum-espresso.org/quote

     Parallel version (MPI), running on     1 processors

     MPI processes distributed on     1 nodes
     0 MiB available memory on the printing compute node when the environment starts

     Reading input from fe.scf.in
Warning: card &CELL ignored
Warning: card / ignored

     Current dimensions of program PWSCF are:
     Max number of different atomic species (ntypx) = 10
     Max number of k-points (npk) =  40000
     Max angular momentum in pseudopotentials (lmaxx) =  4
     file Fe.pbe-spn-kjpaw_psl.0.2.1.UPF: wavefunction(s)  3D renormalized
     Message from routine setup:
     using ibrav=0 with symmetry is DISCOURAGED, use correct ibrav instead

     Subspace diagonalization in iterative solution of the eigenvalue problem:
     a serial algorithm will be used


     G-vector sticks info
     --------------------
     sticks:   dense  smooth     PW     G-vecs:    dense   smooth      PW
     Sum         349     349    109                 8461     8461    1605

     Using Slab Decomposition



     bravais-lattice index     =            0
     lattice parameter (alat)  =       6.4200  a.u.
     unit-cell volume          =     381.0902 (a.u.)^3
     number of atoms/cell      =            2
     number of atomic types    =            1
     number of electrons       =        32.00
     number of Kohn-Sham states=           20
     kinetic-energy cutoff     =      30.0000  Ry
     charge density cutoff     =     120.0000  Ry
     scf convergence threshold =      1.0E-06
     mixing beta               =       0.7000
     number of iterations used =            8  plain     mixing
     Exchange-correlation= SLA  PW   PBX  PBC
                           (   1   4   3   4   0   0   0)

     celldm(1)=   6.420000  celldm(2)=   0.000000  celldm(3)=   0.000000
     celldm(4)=   0.000000  celldm(5)=   0.000000  celldm(6)=   0.000000

     crystal axes: (cart. coord. in units of alat)
               a(1) = (   1.000000   0.000000   0.000000 )  
               a(2) = (   0.500000   0.866025   0.000000 )  
               a(3) = (   0.000000   0.000000   1.663000 )  

     reciprocal axes: (cart. coord. in units 2 pi/alat)
               b(1) = (  1.000000 -0.577351  0.000000 )  
               b(2) = (  0.000000  1.154701  0.000000 )  
               b(3) = (  0.000000  0.000000  0.601323 )  


     PseudoPot. # 1 for Fe read from file:
     ./Fe.pbe-spn-kjpaw_psl.0.2.1.UPF
     MD5 check sum: e86618425769142926afa95317d90200
     Pseudo is Projector augmented-wave + core cor, Zval = 16.0
     Generated using "atomic" code by A. Dal Corso  v.5.0.99 svn rev. 10869
     Shape of augmentation charge: PSQ
     Using radial grid of 1191 points,  6 beta functions with: 
                l(1) =   0
                l(2) =   0
                l(3) =   1
                l(4) =   1
                l(5) =   2
                l(6) =   2
     Q(r) pseudized with 0 coefficients 


     atomic species   valence    mass     pseudopotential
        Fe            16.00    55.84500     Fe( 1.00)

     12 Sym. Ops., with inversion, found ( 6 have fractional translation)



   Cartesian axes

     site n.     atom                  positions (alat units)
         1           Fe  tau(   1) = (   0.0000000   0.0000000   0.0000000  )
         2           Fe  tau(   2) = (   0.5000000   0.2886750   0.5543333  )

     number of k points=    13  Methfessel-Paxton smearing, width (Ry)=  0.0600
                       cart. coord. in units 2pi/alat
        k(    1) = (   0.0000000   0.0000000   0.0000000), wk =   0.0312500
        k(    2) = (   0.0000000   0.0000000   0.1503307), wk =   0.0625000
        k(    3) = (   0.0000000   0.0000000  -0.3006615), wk =   0.0312500
        k(    4) = (   0.0000000   0.2886753   0.0000000), wk =   0.1875000
        k(    5) = (   0.0000000   0.2886753   0.1503307), wk =   0.1875000
        k(    6) = (   0.0000000   0.2886753  -0.3006615), wk =   0.1875000
        k(    7) = (   0.0000000  -0.5773505   0.0000000), wk =   0.0937500
        k(    8) = (   0.0000000  -0.5773505   0.1503307), wk =   0.1875000
        k(    9) = (   0.0000000  -0.5773505  -0.3006615), wk =   0.0937500
        k(   10) = (   0.2500000  -0.7216882   0.0000000), wk =   0.1875000
        k(   11) = (   0.2500000  -0.7216882   0.1503307), wk =   0.3750000
        k(   12) = (   0.2500000  -0.7216882  -0.3006615), wk =   0.1875000
        k(   13) = (   0.0000000   0.2886753  -0.1503307), wk =   0.1875000

     Dense  grid:     8461 G-vectors     FFT dimensions: (  24,  24,  45)

     Estimated max dynamical RAM per process >      35.55 MB

     Check: negative core charge=   -0.006421

     Initial potential from superposition of free atoms

     starting charge      31.9991, renormalised to      32.0000

     negative rho (up, down):  3.682E-03 0.000E+00
     Starting wfcs are   26 randomized atomic wfcs
     Checking if some PAW data can be deallocated... 

     total cpu time spent up to now is        1.4 secs

     Self-consistent Calculation

     iteration #  1     ecut=    30.00 Ry     beta= 0.70
     Davidson diagonalization with overlap
     ethr =  1.00E-02,  avg # of iterations =  2.0

     Threshold (ethr) on eigenvalues was too large:
     Diagonalizing with lowered threshold

     Davidson diagonalization with overlap
     ethr =  4.01E-04,  avg # of iterations =  4.0

     negative rho (up, down):  6.754E-03 0.000E+00

     total cpu time spent up to now is        3.3 secs

     total energy              =    -658.28144324 Ry
     estimated scf accuracy    <       0.12893579 Ry

     iteration #  2     ecut=    30.00 Ry     beta= 0.70
     Davidson diagonalization with overlap
     ethr =  4.03E-04,  avg # of iterations =  3.0

     negative rho (up, down):  2.709E-03 0.000E+00

     total cpu time spent up to now is        4.5 secs

     total energy              =    -658.24501042 Ry
     estimated scf accuracy    <       0.36177756 Ry

     iteration #  3     ecut=    30.00 Ry     beta= 0.70
     Davidson diagonalization with overlap
     ethr =  4.03E-04,  avg # of iterations =  2.9

     negative rho (up, down):  2.737E-03 0.000E+00

     total cpu time spent up to now is        5.8 secs

     total energy              =    -658.31017601 Ry
     estimated scf accuracy    <       0.14355979 Ry

     iteration #  4     ecut=    30.00 Ry     beta= 0.70
     Davidson diagonalization with overlap
     ethr =  4.03E-04,  avg # of iterations =  2.2

     negative rho (up, down):  2.662E-03 0.000E+00

     total cpu time spent up to now is        7.0 secs

     total energy              =    -658.32862939 Ry
     estimated scf accuracy    <       0.00302441 Ry

     iteration #  5     ecut=    30.00 Ry     beta= 0.70
     Davidson diagonalization with overlap
     ethr =  9.45E-06,  avg # of iterations =  2.7

     negative rho (up, down):  2.683E-03 0.000E+00

     total cpu time spent up to now is        8.2 secs

     total energy              =    -658.32931489 Ry
     estimated scf accuracy    <       0.00053260 Ry

     iteration #  6     ecut=    30.00 Ry     beta= 0.70
     Davidson diagonalization with overlap
     ethr =  1.66E-06,  avg # of iterations =  1.6

     negative rho (up, down):  2.675E-03 0.000E+00

     total cpu time spent up to now is        9.4 secs

     total energy              =    -658.32937830 Ry
     estimated scf accuracy    <       0.00008977 Ry

     iteration #  7     ecut=    30.00 Ry     beta= 0.70
     Davidson diagonalization with overlap
     ethr =  2.81E-07,  avg # of iterations =  2.2

     negative rho (up, down):  2.681E-03 0.000E+00

     total cpu time spent up to now is       10.7 secs

     total energy              =    -658.32940012 Ry
     estimated scf accuracy    <       0.00000982 Ry

     iteration #  8     ecut=    30.00 Ry     beta= 0.70
     Davidson diagonalization with overlap
     ethr =  3.07E-08,  avg # of iterations =  2.2

     negative rho (up, down):  2.680E-03 0.000E+00

     total cpu time spent up to now is       11.9 secs

     End of self-consistent calculation

          k = 0.0000 0.0000 0.0000 (  1099 PWs)   bands (ev):

   -82.9593 -82.9458 -48.0636 -48.0636 -48.0576 -48.0576 -48.0422 -47.9509
    -0.4510   2.3990   3.4130   3.4130   3.4340   3.4340   3.8191   4.1913
     4.1913   4.6584   4.6584   5.8566

          k = 0.0000 0.0000 0.1503 (  1069 PWs)   bands (ev):

   -82.9488 -82.9373 -48.0383 -48.0383 -47.9973 -47.9935 -47.9935 -47.9428
    -0.1938   2.2059   3.4051   3.4051   3.4305   3.4305   3.4875   4.2050
     4.2050   4.4385   4.6578   4.6578

          k = 0.0000 0.0000-0.3007 (  1062 PWs)   bands (ev):

   -82.9507 -82.9326 -48.0272 -48.0271 -47.9969 -47.9968 -47.9627 -47.9609
     0.1587   1.7775   3.1573   3.4031   3.4031   3.4209   3.4209   4.2194
     4.2194   4.2389   4.6562   4.6562

          k = 0.0000 0.2887 0.0000 (  1056 PWs)   bands (ev):

   -82.9452 -82.9313 -48.0160 -48.0157 -47.9905 -47.9876 -47.9676 -47.9355
     0.7386   2.8035   3.0905   3.3929   3.4412   3.7623   3.9129   4.1348
     4.1929   4.2444   4.6850   6.8795

          k = 0.0000 0.2887 0.1503 (  1062 PWs)   bands (ev):

   -82.9485 -82.9324 -48.0269 -48.0237 -47.9989 -47.9902 -47.9793 -47.9441
     0.9563   2.8121   3.1091   3.2065   3.4460   3.7493   3.8843   4.0470
     4.1832   4.2520   4.6820   5.4100

          k = 0.0000 0.2887-0.3007 (  1066 PWs)   bands (ev):

   -82.9482 -82.9342 -48.0293 -48.0227 -48.0159 -47.9787 -47.9756 -47.9595
     1.2799   2.5113   3.0042   3.2971   3.4562   3.7422   3.8777   4.0213
     4.2642   4.3425   4.6499   4.6593

          k = 0.0000-0.5774 0.0000 (  1044 PWs)   bands (ev):

   -82.9375 -82.9301 -47.9955 -47.9896 -47.9753 -47.9700 -47.9570 -47.9535
     2.5297   2.5649   3.0731   3.4221   3.8295   3.8769   4.1149   4.2295
     4.2657   4.7044   5.3413   5.8894

          k = 0.0000-0.5774 0.1503 (  1054 PWs)   bands (ev):

   -82.9387 -82.9347 -48.0100 -48.0066 -47.9928 -47.9805 -47.9631 -47.9464
     2.5014   2.6126   3.0649   3.4425   3.7280   4.0893   4.1519   4.2300
     4.2510   4.6833   5.5010   5.9698

          k = 0.0000-0.5774-0.3007 (  1056 PWs)   bands (ev):

   -82.9389 -82.9362 -48.0285 -48.0002 -47.9928 -47.9896 -47.9600 -47.9467
     2.5134   2.6138   3.0496   3.4641   3.7981   4.1404   4.1926   4.2316
     4.2331   4.6630   5.7740   6.1747

          k = 0.2500-0.7217 0.0000 (  1056 PWs)   bands (ev):

   -82.9413 -82.9345 -48.0230 -48.0113 -47.9997 -47.9688 -47.9652 -47.9548
     2.4790   2.8706   3.0578   3.3277   3.4270   3.8579   4.0488   4.2757
     4.2846   4.5415   4.8904   8.6601

          k = 0.2500-0.7217 0.1503 (  1059 PWs)   bands (ev):

   -82.9422 -82.9361 -48.0230 -48.0063 -48.0013 -47.9856 -47.9719 -47.9623
     2.5619   2.9042   3.0714   3.3388   3.4320   3.8799   4.0012   4.2501
     4.3030   4.4599   5.0598   7.2727

          k = 0.2500-0.7217-0.3007 (  1042 PWs)   bands (ev):

   -82.9380 -82.9316 -48.0021 -47.9947 -47.9930 -47.9813 -47.9403 -47.9355
     2.6389   3.0175   3.0268   3.3172   3.4617   3.9163   3.9363   4.2320
     4.3434   4.3806   5.3864   6.2675

          k = 0.0000 0.2887-0.1503 (  1062 PWs)   bands (ev):

   -82.9473 -82.9334 -48.0303 -48.0277 -48.0036 -47.9920 -47.9692 -47.9378
     0.9547   2.6843   3.0289   3.3915   3.4504   3.7563   3.9267   4.0870
     4.2556   4.3579   4.6626   5.1460

     the Fermi energy is     4.2226 ev

!    total energy              =    -658.32940136 Ry

     total all-electron energy =     -5090.922472 Ry
     estimated scf accuracy    <       0.00000022 Ry
     smearing contrib. (-TS)   =      -0.04067842 Ry
     internal energy E=F+TS    =    -658.28872295 Ry

     The total energy is F=E-TS. E is the sum of the following terms:
     one-electron contribution =    -416.67040656 Ry
     hartree contribution      =     213.11972567 Ry
     xc contribution           =     -69.35192614 Ry
     ewald contribution        =    -233.24975279 Ry
     one-center paw contrib.   =    -152.13636313 Ry

     convergence has been achieved in   8 iterations

     Writing all to output data dir ./fe.save/

     init_run     :      1.32s CPU      1.34s WALL (       1 calls)
     electrons    :     10.23s CPU     10.48s WALL (       1 calls)

     Called by init_run:
     wfcinit      :      0.18s CPU      0.19s WALL (       1 calls)
     potinit      :      0.70s CPU      0.71s WALL (       1 calls)
     hinit0       :      0.40s CPU      0.40s WALL (       1 calls)

     Called by electrons:
     c_bands      :      3.72s CPU      3.86s WALL (       9 calls)
     sum_band     :      1.00s CPU      1.04s WALL (       9 calls)
     v_of_rho     :      0.08s CPU      0.08s WALL (       9 calls)
     newd         :      0.20s CPU      0.22s WALL (       9 calls)
     PAW_pot      :      5.91s CPU      5.98s WALL (       9 calls)
     mix_rho      :      0.01s CPU      0.01s WALL (       9 calls)

     Called by c_bands:
     init_us_2    :      0.09s CPU      0.10s WALL (     247 calls)
     init_us_2:cp :      0.09s CPU      0.10s WALL (     247 calls)
     cegterg      :      3.11s CPU      3.24s WALL (     117 calls)

     Called by *egterg:
     cdiaghg      :      0.13s CPU      0.13s WALL (     399 calls)
     h_psi        :      2.81s CPU      2.87s WALL (     425 calls)
     s_psi        :      0.03s CPU      0.05s WALL (     425 calls)
     g_psi        :      0.03s CPU      0.03s WALL (     295 calls)

     Called by h_psi:
     h_psi:calbec :      0.05s CPU      0.08s WALL (     425 calls)
     vloc_psi     :      2.70s CPU      2.73s WALL (     425 calls)
     add_vuspsi   :      0.04s CPU      0.05s WALL (     425 calls)

     General routines
     calbec       :      0.07s CPU      0.10s WALL (     542 calls)
     fft          :      0.02s CPU      0.02s WALL (     100 calls)
     ffts         :      0.00s CPU      0.00s WALL (       9 calls)
     fftw         :      1.73s CPU      1.75s WALL (   14922 calls)

     Parallel routines

     PWSCF        :     11.65s CPU     11.94s WALL


   This run was terminated on:  18: 6:48  19Mar2022            

=------------------------------------------------------------------------------=
   JOB DONE.
=------------------------------------------------------------------------------=
