
     Program PWSCF v.7.0 starts on 24Mar2022 at  9:12:14 

     This program is part of the open-source Quantum ESPRESSO suite
     for quantum simulation of materials; please cite
         "P. Giannozzi et al., J. Phys.:Condens. Matter 21 395502 (2009);
         "P. Giannozzi et al., J. Phys.:Condens. Matter 29 465901 (2017);
         "P. Giannozzi et al., J. Chem. Phys. 152 154105 (2020);
          URL http://www.quantum-espresso.org", 
     in publications or presentations arising from this work. More details at
     http://www.quantum-espresso.org/quote

     Parallel version (MPI), running on     1 processors

     MPI processes distributed on     1 nodes
     0 MiB available memory on the printing compute node when the environment starts

     Reading input from fe.scf.in
Warning: card &CELL ignored
Warning: card / ignored
     Message from routine read_cards :
     DEPRECATED: no units specified in ATOMIC_POSITIONS card
     Message from routine read_cards :
     ATOMIC_POSITIONS: units set to alat

     Current dimensions of program PWSCF are:
     Max number of different atomic species (ntypx) = 10
     Max number of k-points (npk) =  40000
     Max angular momentum in pseudopotentials (lmaxx) =  4

     Subspace diagonalization in iterative solution of the eigenvalue problem:
     a serial algorithm will be used


     G-vector sticks info
     --------------------
     sticks:   dense  smooth     PW     G-vecs:    dense   smooth      PW
     Sum         205      99     37                 1865      675     141

     Using Slab Decomposition



     bravais-lattice index     =            3
     lattice parameter (alat)  =       3.9000  a.u.
     unit-cell volume          =      29.6595 (a.u.)^3
     number of atoms/cell      =            1
     number of atomic types    =            1
     number of electrons       =        16.00
     number of Kohn-Sham states=           12
     kinetic-energy cutoff     =      30.0000  Ry
     charge density cutoff     =     240.0000  Ry
     scf convergence threshold =      1.0E-07
     mixing beta               =       0.5000
     number of iterations used =            8  plain     mixing
     Exchange-correlation= PBE
                           (   1   4   3   4   0   0   0)

     celldm(1)=   3.900000  celldm(2)=   0.000000  celldm(3)=   0.000000
     celldm(4)=   0.000000  celldm(5)=   0.000000  celldm(6)=   0.000000

     crystal axes: (cart. coord. in units of alat)
               a(1) = (   0.500000   0.500000   0.500000 )  
               a(2) = (  -0.500000   0.500000   0.500000 )  
               a(3) = (  -0.500000  -0.500000   0.500000 )  

     reciprocal axes: (cart. coord. in units 2 pi/alat)
               b(1) = (  1.000000  0.000000  1.000000 )  
               b(2) = ( -1.000000  1.000000  0.000000 )  
               b(3) = (  0.000000 -1.000000  1.000000 )  


     PseudoPot. # 1 for Fe read from file:
     ./Fe.pbe-spn-rrkjus_psl.1.0.0.UPF
     MD5 check sum: 72ea77fed8e64ab3a2ccf2804dfc1862
     Pseudo is Ultrasoft + core correction, Zval = 16.0
     Generated using &quot;atomic&quot; code by A. Dal Corso  v.6.3
     Using radial grid of 1191 points,  6 beta functions with: 
                l(1) =   0
                l(2) =   0
                l(3) =   1
                l(4) =   1
                l(5) =   2
                l(6) =   2
     Q(r) pseudized with 0 coefficients 


     atomic species   valence    mass     pseudopotential
        Fe            16.00    55.84700     Fe( 1.00)

     Starting magnetic structure 
     atomic species   magnetization
        Fe           0.700

     48 Sym. Ops., with inversion, found



   Cartesian axes

     site n.     atom                  positions (alat units)
         1           Fe  tau(   1) = (   0.0000000   0.0000000   0.0000000  )

     number of k points=     2  Methfessel-Paxton smearing, width (Ry)=  0.0200
                       cart. coord. in units 2pi/alat
        k(    1) = (   0.0000000   0.0000000   0.0000000), wk =   0.2500000
        k(    2) = (   0.5000000  -0.5000000   0.0000000), wk =   0.7500000

     Dense  grid:     1865 G-vectors     FFT dimensions: (  18,  18,  18)

     Smooth grid:      675 G-vectors     FFT dimensions: (  12,  12,  12)

     Estimated max dynamical RAM per process >       8.65 MB

     Check: negative core charge=   -0.000027
     Generating pointlists ...
     new r_m :   0.3572 (alat units)  1.3932 (a.u.) for type    1

     Initial potential from superposition of free atoms

     starting charge      15.9996, renormalised to      16.0000
     Starting wfcs are   10 randomized atomic wfcs +    2 random wfcs

     total cpu time spent up to now is        0.6 secs

     Self-consistent Calculation

     iteration #  1     ecut=    30.00 Ry     beta= 0.50
     Davidson diagonalization with overlap
     ethr =  1.00E-02,  avg # of iterations =  4.2

     negative rho (up, down):  0.000E+00 5.399E-03

     total cpu time spent up to now is        0.6 secs

     total energy              =    -243.45568520 Ry
     estimated scf accuracy    <       1.97907587 Ry

     total magnetization       =     4.00 Bohr mag/cell
     absolute magnetization    =     4.00 Bohr mag/cell

     iteration #  2     ecut=    30.00 Ry     beta= 0.50
     Davidson diagonalization with overlap
     ethr =  1.00E-02,  avg # of iterations =  1.0

     negative rho (up, down):  1.224E-03 2.079E-02

     total cpu time spent up to now is        0.7 secs

     total energy              =    -243.88611792 Ry
     estimated scf accuracy    <       0.69049490 Ry

     total magnetization       =     2.99 Bohr mag/cell
     absolute magnetization    =     2.99 Bohr mag/cell

     iteration #  3     ecut=    30.00 Ry     beta= 0.50
     Davidson diagonalization with overlap
     ethr =  4.32E-03,  avg # of iterations =  1.0

     negative rho (up, down):  1.983E-03 2.294E-02

     total cpu time spent up to now is        0.7 secs

     total energy              =    -243.93358351 Ry
     estimated scf accuracy    <       0.05570890 Ry

     total magnetization       =     2.36 Bohr mag/cell
     absolute magnetization    =     2.37 Bohr mag/cell

     iteration #  4     ecut=    30.00 Ry     beta= 0.50
     Davidson diagonalization with overlap
     ethr =  3.48E-04,  avg # of iterations =  1.0

     negative rho (up, down):  1.953E-03 2.318E-02

     total cpu time spent up to now is        0.7 secs

     total energy              =    -243.95542631 Ry
     estimated scf accuracy    <       0.06598912 Ry

     total magnetization       =     1.21 Bohr mag/cell
     absolute magnetization    =     1.24 Bohr mag/cell

     iteration #  5     ecut=    30.00 Ry     beta= 0.50
     Davidson diagonalization with overlap
     ethr =  3.48E-04,  avg # of iterations =  1.0

     negative rho (up, down):  1.689E-03 2.480E-02

     total cpu time spent up to now is        0.7 secs

     total energy              =    -243.90970844 Ry
     estimated scf accuracy    <       0.04788321 Ry

     total magnetization       =     1.49 Bohr mag/cell
     absolute magnetization    =     1.52 Bohr mag/cell

     iteration #  6     ecut=    30.00 Ry     beta= 0.50
     Davidson diagonalization with overlap
     ethr =  2.99E-04,  avg # of iterations =  1.0

     negative rho (up, down):  1.127E-03 3.261E-02

     total cpu time spent up to now is        0.8 secs

     total energy              =    -243.86036251 Ry
     estimated scf accuracy    <       0.05914971 Ry

     total magnetization       =     2.00 Bohr mag/cell
     absolute magnetization    =     2.03 Bohr mag/cell

     iteration #  7     ecut=    30.00 Ry     beta= 0.50
     Davidson diagonalization with overlap
     ethr =  2.99E-04,  avg # of iterations =  1.5

     negative rho (up, down):  1.155E-03 3.230E-02

     total cpu time spent up to now is        0.8 secs

     total energy              =    -243.87550458 Ry
     estimated scf accuracy    <       0.11270383 Ry

     total magnetization       =     2.55 Bohr mag/cell
     absolute magnetization    =     2.58 Bohr mag/cell

     iteration #  8     ecut=    30.00 Ry     beta= 0.50
     Davidson diagonalization with overlap
     ethr =  2.99E-04,  avg # of iterations =  1.0

     negative rho (up, down):  9.053E-04 3.596E-02

     total cpu time spent up to now is        0.8 secs

     total energy              =    -243.84740863 Ry
     estimated scf accuracy    <       0.10593245 Ry

     total magnetization       =     2.52 Bohr mag/cell
     absolute magnetization    =     2.55 Bohr mag/cell

     iteration #  9     ecut=    30.00 Ry     beta= 0.50
     Davidson diagonalization with overlap
     ethr =  2.99E-04,  avg # of iterations =  1.0

     negative rho (up, down):  1.706E-03 2.403E-02

     total cpu time spent up to now is        0.8 secs

     total energy              =    -243.91402702 Ry
     estimated scf accuracy    <       0.17156578 Ry

     total magnetization       =     2.49 Bohr mag/cell
     absolute magnetization    =     2.54 Bohr mag/cell

     iteration # 10     ecut=    30.00 Ry     beta= 0.50
     Davidson diagonalization with overlap
     ethr =  2.99E-04,  avg # of iterations =  1.5

     negative rho (up, down):  1.948E-03 2.078E-02

     total cpu time spent up to now is        0.8 secs

     total energy              =    -243.94542852 Ry
     estimated scf accuracy    <       0.05942316 Ry

     total magnetization       =     2.00 Bohr mag/cell
     absolute magnetization    =     2.04 Bohr mag/cell

     iteration # 11     ecut=    30.00 Ry     beta= 0.50
     Davidson diagonalization with overlap
     ethr =  2.99E-04,  avg # of iterations =  1.0

     negative rho (up, down):  2.140E-03 1.883E-02

     total cpu time spent up to now is        0.9 secs

     total energy              =    -243.95239627 Ry
     estimated scf accuracy    <       0.02397340 Ry

     total magnetization       =     2.02 Bohr mag/cell
     absolute magnetization    =     2.05 Bohr mag/cell

     iteration # 12     ecut=    30.00 Ry     beta= 0.50
     Davidson diagonalization with overlap
     ethr =  1.50E-04,  avg # of iterations =  1.0

     negative rho (up, down):  2.529E-03 1.391E-02

     total cpu time spent up to now is        0.9 secs

     total energy              =    -243.95770253 Ry
     estimated scf accuracy    <       0.01224477 Ry

     total magnetization       =     1.92 Bohr mag/cell
     absolute magnetization    =     1.94 Bohr mag/cell

     iteration # 13     ecut=    30.00 Ry     beta= 0.50
     Davidson diagonalization with overlap
     ethr =  7.65E-05,  avg # of iterations =  1.5

     negative rho (up, down):  2.719E-03 1.197E-02

     total cpu time spent up to now is        0.9 secs

     total energy              =    -243.98149607 Ry
     estimated scf accuracy    <       0.03813862 Ry

     total magnetization       =     0.98 Bohr mag/cell
     absolute magnetization    =     1.01 Bohr mag/cell

     iteration # 14     ecut=    30.00 Ry     beta= 0.50
     Davidson diagonalization with overlap
     ethr =  7.65E-05,  avg # of iterations =  1.0
     Minimization algorithm failed to find Fermi energy: reverting to bisection
     Possible cause: smearing is larger than the electronic band-gap.

     negative rho (up, down):  3.059E-03 9.337E-03

     total cpu time spent up to now is        0.9 secs

     total energy              =    -244.00250815 Ry
     estimated scf accuracy    <       0.04504049 Ry

     total magnetization       =     0.53 Bohr mag/cell
     absolute magnetization    =     0.57 Bohr mag/cell

     iteration # 15     ecut=    30.00 Ry     beta= 0.50
     Davidson diagonalization with overlap
     ethr =  7.65E-05,  avg # of iterations =  1.5

     negative rho (up, down):  2.439E-03 1.506E-02

     total cpu time spent up to now is        1.0 secs

     total energy              =    -243.95542089 Ry
     estimated scf accuracy    <       0.01365206 Ry

     total magnetization       =     0.50 Bohr mag/cell
     absolute magnetization    =     0.52 Bohr mag/cell

     iteration # 16     ecut=    30.00 Ry     beta= 0.50
     Davidson diagonalization with overlap
     ethr =  7.65E-05,  avg # of iterations =  1.5

     negative rho (up, down):  2.604E-03 1.277E-02

     total cpu time spent up to now is        1.0 secs

     total energy              =    -243.97327300 Ry
     estimated scf accuracy    <       0.04500474 Ry

     total magnetization       =     1.09 Bohr mag/cell
     absolute magnetization    =     1.12 Bohr mag/cell

     iteration # 17     ecut=    30.00 Ry     beta= 0.50
     Davidson diagonalization with overlap
     ethr =  7.65E-05,  avg # of iterations =  1.0

     negative rho (up, down):  2.915E-03 1.037E-02

     total cpu time spent up to now is        1.0 secs

     total energy              =    -243.98820787 Ry
     estimated scf accuracy    <       0.03708957 Ry

     total magnetization       =     0.94 Bohr mag/cell
     absolute magnetization    =     0.96 Bohr mag/cell

     iteration # 18     ecut=    30.00 Ry     beta= 0.50
     Davidson diagonalization with overlap
     ethr =  7.65E-05,  avg # of iterations =  1.5

     negative rho (up, down):  2.569E-03 1.331E-02

     total cpu time spent up to now is        1.0 secs

     total energy              =    -243.96771863 Ry
     estimated scf accuracy    <       0.02989112 Ry

     total magnetization       =     0.47 Bohr mag/cell
     absolute magnetization    =     0.51 Bohr mag/cell

     iteration # 19     ecut=    30.00 Ry     beta= 0.50
     Davidson diagonalization with overlap
     ethr =  7.65E-05,  avg # of iterations =  1.5

     negative rho (up, down):  2.530E-03 1.390E-02

     total cpu time spent up to now is        1.1 secs

     total energy              =    -243.97040790 Ry
     estimated scf accuracy    <       0.03848037 Ry

     total magnetization       =     1.00 Bohr mag/cell
     absolute magnetization    =     1.02 Bohr mag/cell

     iteration # 20     ecut=    30.00 Ry     beta= 0.50
     Davidson diagonalization with overlap
     ethr =  7.65E-05,  avg # of iterations =  1.0

     negative rho (up, down):  2.892E-03 1.067E-02

     total cpu time spent up to now is        1.1 secs

     total energy              =    -243.98623300 Ry
     estimated scf accuracy    <       0.04347938 Ry

     total magnetization       =     1.00 Bohr mag/cell
     absolute magnetization    =     1.03 Bohr mag/cell

     iteration # 21     ecut=    30.00 Ry     beta= 0.50
     Davidson diagonalization with overlap
     ethr =  7.65E-05,  avg # of iterations =  1.5

     negative rho (up, down):  3.093E-03 9.070E-03

     total cpu time spent up to now is        1.1 secs

     total energy              =    -244.00383274 Ry
     estimated scf accuracy    <       0.03412346 Ry

     total magnetization       =     0.45 Bohr mag/cell
     absolute magnetization    =     0.49 Bohr mag/cell

     iteration # 22     ecut=    30.00 Ry     beta= 0.50
     Davidson diagonalization with overlap
     ethr =  7.65E-05,  avg # of iterations =  1.0

     negative rho (up, down):  3.126E-03 8.795E-03

     total cpu time spent up to now is        1.1 secs

     total energy              =    -244.00480618 Ry
     estimated scf accuracy    <       0.01355486 Ry

     total magnetization       =     0.50 Bohr mag/cell
     absolute magnetization    =     0.52 Bohr mag/cell

     iteration # 23     ecut=    30.00 Ry     beta= 0.50
     Davidson diagonalization with overlap
     ethr =  7.65E-05,  avg # of iterations =  1.0

     negative rho (up, down):  3.260E-03 7.727E-03

     total cpu time spent up to now is        1.2 secs

     total energy              =    -244.00838946 Ry
     estimated scf accuracy    <       0.01151280 Ry

     total magnetization       =     0.50 Bohr mag/cell
     absolute magnetization    =     0.52 Bohr mag/cell

     iteration # 24     ecut=    30.00 Ry     beta= 0.50
     Davidson diagonalization with overlap
     ethr =  7.20E-05,  avg # of iterations =  1.0

     negative rho (up, down):  3.185E-03 8.247E-03

     total cpu time spent up to now is        1.2 secs

     total energy              =    -244.00656167 Ry
     estimated scf accuracy    <       0.00596100 Ry

     total magnetization       =     0.50 Bohr mag/cell
     absolute magnetization    =     0.51 Bohr mag/cell

     iteration # 25     ecut=    30.00 Ry     beta= 0.50
     Davidson diagonalization with overlap
     ethr =  3.73E-05,  avg # of iterations =  1.0

     negative rho (up, down):  3.171E-03 8.350E-03

     total cpu time spent up to now is        1.2 secs

     total energy              =    -244.00617886 Ry
     estimated scf accuracy    <       0.00859643 Ry

     total magnetization       =     0.50 Bohr mag/cell
     absolute magnetization    =     0.51 Bohr mag/cell

     iteration # 26     ecut=    30.00 Ry     beta= 0.50
     Davidson diagonalization with overlap
     ethr =  3.73E-05,  avg # of iterations =  1.0

     negative rho (up, down):  3.170E-03 8.353E-03

     total cpu time spent up to now is        1.2 secs

     total energy              =    -244.00611951 Ry
     estimated scf accuracy    <       0.00920588 Ry

     total magnetization       =     0.50 Bohr mag/cell
     absolute magnetization    =     0.51 Bohr mag/cell

     iteration # 27     ecut=    30.00 Ry     beta= 0.50
     Davidson diagonalization with overlap
     ethr =  3.73E-05,  avg # of iterations =  1.0

     negative rho (up, down):  3.173E-03 8.328E-03

     total cpu time spent up to now is        1.2 secs

     total energy              =    -244.00624614 Ry
     estimated scf accuracy    <       0.00928733 Ry

     total magnetization       =     0.50 Bohr mag/cell
     absolute magnetization    =     0.51 Bohr mag/cell

     iteration # 28     ecut=    30.00 Ry     beta= 0.50
     Davidson diagonalization with overlap
     ethr =  3.73E-05,  avg # of iterations =  1.0

     negative rho (up, down):  3.176E-03 8.311E-03

     total cpu time spent up to now is        1.3 secs

     total energy              =    -244.00631137 Ry
     estimated scf accuracy    <       0.00909331 Ry

     total magnetization       =     0.50 Bohr mag/cell
     absolute magnetization    =     0.51 Bohr mag/cell

     iteration # 29     ecut=    30.00 Ry     beta= 0.50
     Davidson diagonalization with overlap
     ethr =  3.73E-05,  avg # of iterations =  1.0

     negative rho (up, down):  3.132E-03 8.603E-03

     total cpu time spent up to now is        1.3 secs

     total energy              =    -244.00523722 Ry
     estimated scf accuracy    <       0.00899151 Ry

     total magnetization       =     0.50 Bohr mag/cell
     absolute magnetization    =     0.51 Bohr mag/cell

     iteration # 30     ecut=    30.00 Ry     beta= 0.50
     Davidson diagonalization with overlap
     ethr =  3.73E-05,  avg # of iterations =  1.0

     negative rho (up, down):  3.379E-03 7.030E-03

     total cpu time spent up to now is        1.3 secs

     total energy              =    -244.01142312 Ry
     estimated scf accuracy    <       0.01078124 Ry

     total magnetization       =     0.50 Bohr mag/cell
     absolute magnetization    =     0.52 Bohr mag/cell

     iteration # 31     ecut=    30.00 Ry     beta= 0.50
     Davidson diagonalization with overlap
     ethr =  3.73E-05,  avg # of iterations =  1.5

     negative rho (up, down):  3.357E-03 5.850E-03

     total cpu time spent up to now is        1.3 secs

     total energy              =    -244.01206016 Ry
     estimated scf accuracy    <       0.00028874 Ry

     total magnetization       =     0.50 Bohr mag/cell
     absolute magnetization    =     0.50 Bohr mag/cell

     iteration # 32     ecut=    30.00 Ry     beta= 0.50
     Davidson diagonalization with overlap
     ethr =  1.80E-06,  avg # of iterations =  2.0

     negative rho (up, down):  3.350E-03 6.133E-03

     total cpu time spent up to now is        1.4 secs

     total energy              =    -244.01209078 Ry
     estimated scf accuracy    <       0.00004294 Ry

     total magnetization       =     0.50 Bohr mag/cell
     absolute magnetization    =     0.50 Bohr mag/cell

     iteration # 33     ecut=    30.00 Ry     beta= 0.50
     Davidson diagonalization with overlap
     ethr =  2.68E-07,  avg # of iterations =  1.5

     negative rho (up, down):  3.340E-03 6.430E-03

     total cpu time spent up to now is        1.4 secs

     total energy              =    -244.01209152 Ry
     estimated scf accuracy    <       0.00000614 Ry

     total magnetization       =     0.50 Bohr mag/cell
     absolute magnetization    =     0.50 Bohr mag/cell

     iteration # 34     ecut=    30.00 Ry     beta= 0.50
     Davidson diagonalization with overlap
     ethr =  3.84E-08,  avg # of iterations =  2.0

     negative rho (up, down):  3.340E-03 6.441E-03

     Magnetic moment per site  (integrated on atomic sphere of radius R)
     atom   1 (R=0.357)  charge= 14.0481  magn=  0.4861

     total cpu time spent up to now is        1.4 secs

     End of self-consistent calculation

 ------ SPIN UP ------------


          k = 0.0000 0.0000 0.0000 (    79 PWs)   bands (ev):

   -39.8437   0.4688   0.4688   0.4688  42.2302  51.5224  51.5224  51.5224
    52.9718  52.9718  86.0512  86.0512

          k = 0.5000-0.5000 0.0000 (    84 PWs)   bands (ev):

   -37.2413  -6.7520  -2.1503   0.8479  41.6641  46.5874  54.6989  56.8588
    57.5012  57.9726  77.5242  78.9067

 ------ SPIN DOWN ----------


          k = 0.0000 0.0000 0.0000 (    79 PWs)   bands (ev):

   -39.2572   1.0884   1.0884   1.0884  42.3633  51.8236  51.8236  51.8236
    53.8596  53.8596  86.1420  86.1420

          k = 0.5000-0.5000 0.0000 (    84 PWs)   bands (ev):

   -36.6337  -6.2199  -1.5578   1.4623  42.0101  46.8307  55.3705  57.7935
    57.9397  58.1700  77.9052  79.0150

     the Fermi energy is    56.9152 ev

!    total energy              =    -244.01209327 Ry
     estimated scf accuracy    <       0.00000004 Ry
     smearing contrib. (-TS)   =      -0.00168141 Ry
     internal energy E=F+TS    =    -244.01041186 Ry

     The total energy is F=E-TS. E is the sum of the following terms:
     one-electron contribution =     -11.41750681 Ry
     hartree contribution      =      35.76192793 Ry
     xc contribution           =     -29.47181678 Ry
     ewald contribution        =    -238.88301620 Ry

     total magnetization       =     0.50 Bohr mag/cell
     absolute magnetization    =     0.50 Bohr mag/cell

     convergence has been achieved in  34 iterations

     Writing all to output data dir ./temp/fe.save/

     init_run     :      0.48s CPU      0.50s WALL (       1 calls)
     electrons    :      0.77s CPU      0.81s WALL (       1 calls)

     Called by init_run:
     wfcinit      :      0.00s CPU      0.01s WALL (       1 calls)
     potinit      :      0.01s CPU      0.01s WALL (       1 calls)
     hinit0       :      0.47s CPU      0.48s WALL (       1 calls)

     Called by electrons:
     c_bands      :      0.15s CPU      0.16s WALL (      34 calls)
     sum_band     :      0.34s CPU      0.35s WALL (      34 calls)
     v_of_rho     :      0.14s CPU      0.15s WALL (      35 calls)
     newd         :      0.12s CPU      0.13s WALL (      35 calls)
     mix_rho      :      0.02s CPU      0.02s WALL (      34 calls)

     Called by c_bands:
     init_us_2    :      0.01s CPU      0.01s WALL (     276 calls)
     init_us_2:cp :      0.01s CPU      0.01s WALL (     276 calls)
     cegterg      :      0.12s CPU      0.13s WALL (     136 calls)

     Called by *egterg:
     cdiaghg      :      0.02s CPU      0.03s WALL (     313 calls)
     h_psi        :      0.08s CPU      0.09s WALL (     317 calls)
     s_psi        :      0.00s CPU      0.00s WALL (     317 calls)
     g_psi        :      0.00s CPU      0.00s WALL (     177 calls)

     Called by h_psi:
     h_psi:calbec :      0.00s CPU      0.00s WALL (     317 calls)
     vloc_psi     :      0.07s CPU      0.08s WALL (     317 calls)
     add_vuspsi   :      0.00s CPU      0.00s WALL (     317 calls)

     General routines
     calbec       :      0.00s CPU      0.00s WALL (     453 calls)
     fft          :      0.04s CPU      0.04s WALL (     869 calls)
     ffts         :      0.00s CPU      0.00s WALL (     138 calls)
     fftw         :      0.03s CPU      0.04s WALL (    8552 calls)
     interpolate  :      0.00s CPU      0.00s WALL (      70 calls)

     Parallel routines

     PWSCF        :      1.35s CPU      1.43s WALL


   This run was terminated on:   9:12:15  24Mar2022            

=------------------------------------------------------------------------------=
   JOB DONE.
=------------------------------------------------------------------------------=
