
     Program PWSCF v.7.0 starts on 19Mar2022 at 17:22:33 

     This program is part of the open-source Quantum ESPRESSO suite
     for quantum simulation of materials; please cite
         "P. Giannozzi et al., J. Phys.:Condens. Matter 21 395502 (2009);
         "P. Giannozzi et al., J. Phys.:Condens. Matter 29 465901 (2017);
         "P. Giannozzi et al., J. Chem. Phys. 152 154105 (2020);
          URL http://www.quantum-espresso.org", 
     in publications or presentations arising from this work. More details at
     http://www.quantum-espresso.org/quote

     Parallel version (MPI), running on     1 processors

     MPI processes distributed on     1 nodes
     0 MiB available memory on the printing compute node when the environment starts

     Reading input from fe.vc_relax.fcc.in

     Current dimensions of program PWSCF are:
     Max number of different atomic species (ntypx) = 10
     Max number of k-points (npk) =  40000
     Max angular momentum in pseudopotentials (lmaxx) =  4
     file Fe.pbe-spn-kjpaw_psl.0.2.1.UPF: wavefunction(s)  3D renormalized

     Subspace diagonalization in iterative solution of the eigenvalue problem:
     a serial algorithm will be used


     G-vector sticks info
     --------------------
     sticks:   dense  smooth     PW     G-vecs:    dense   smooth      PW
     Sum         673     265     85                26303     6613    1209

     Using Slab Decomposition



     bravais-lattice index     =            4
     lattice parameter (alat)  =       5.7000  a.u.
     unit-cell volume          =     299.2725 (a.u.)^3
     number of atoms/cell      =            1
     number of atomic types    =            1
     number of electrons       =        16.00
     number of Kohn-Sham states=           12
     kinetic-energy cutoff     =      30.0000  Ry
     charge density cutoff     =     300.0000  Ry
     scf convergence threshold =      1.0E-08
     mixing beta               =       0.7000
     number of iterations used =            8  plain     mixing
     energy convergence thresh.=      1.0E-06
     force convergence thresh. =      1.0E-06
     press convergence thresh. =      5.0E-01
     Exchange-correlation= SLA  PW   PBX  PBC
                           (   1   4   3   4   0   0   0)
     nstep                     =          100


     celldm(1)=   5.700000  celldm(2)=   0.000000  celldm(3)=   1.866000
     celldm(4)=   0.000000  celldm(5)=   0.000000  celldm(6)=   0.000000

     crystal axes: (cart. coord. in units of alat)
               a(1) = (   1.000000   0.000000   0.000000 )  
               a(2) = (  -0.500000   0.866025   0.000000 )  
               a(3) = (   0.000000   0.000000   1.866000 )  

     reciprocal axes: (cart. coord. in units 2 pi/alat)
               b(1) = (  1.000000  0.577350 -0.000000 )  
               b(2) = (  0.000000  1.154701  0.000000 )  
               b(3) = (  0.000000 -0.000000  0.535906 )  


     PseudoPot. # 1 for Fe read from file:
     ./Fe.pbe-spn-kjpaw_psl.0.2.1.UPF
     MD5 check sum: e86618425769142926afa95317d90200
     Pseudo is Projector augmented-wave + core cor, Zval = 16.0
     Generated using "atomic" code by A. Dal Corso  v.5.0.99 svn rev. 10869
     Shape of augmentation charge: PSQ
     Using radial grid of 1191 points,  6 beta functions with: 
                l(1) =   0
                l(2) =   0
                l(3) =   1
                l(4) =   1
                l(5) =   2
                l(6) =   2
     Q(r) pseudized with 0 coefficients 


     atomic species   valence    mass     pseudopotential
        Fe            16.00    55.84500     Fe( 1.00)

     24 Sym. Ops., with inversion, found



   Cartesian axes

     site n.     atom                  positions (alat units)
         1           Fe  tau(   1) = (   0.0000000   0.0000000   0.0000000  )

     number of k points=    12  Methfessel-Paxton smearing, width (Ry)=  0.0600
                       cart. coord. in units 2pi/alat
        k(    1) = (   0.0000000   0.0000000   0.0000000), wk =   0.0312500
        k(    2) = (   0.0000000   0.0000000   0.1339764), wk =   0.0625000
        k(    3) = (   0.0000000   0.0000000  -0.2679528), wk =   0.0312500
        k(    4) = (   0.0000000   0.2886751   0.0000000), wk =   0.1875000
        k(    5) = (   0.0000000   0.2886751   0.1339764), wk =   0.3750000
        k(    6) = (   0.0000000   0.2886751  -0.2679528), wk =   0.1875000
        k(    7) = (   0.0000000  -0.5773503   0.0000000), wk =   0.0937500
        k(    8) = (   0.0000000  -0.5773503   0.1339764), wk =   0.1875000
        k(    9) = (   0.0000000  -0.5773503  -0.2679528), wk =   0.0937500
        k(   10) = (   0.2500000   0.4330127   0.0000000), wk =   0.1875000
        k(   11) = (   0.2500000   0.4330127   0.1339764), wk =   0.3750000
        k(   12) = (   0.2500000   0.4330127  -0.2679528), wk =   0.1875000

     Dense  grid:    26303 G-vectors     FFT dimensions: (  32,  32,  60)

     Smooth grid:     6613 G-vectors     FFT dimensions: (  20,  20,  40)

     Estimated max dynamical RAM per process >     100.66 MB

     Check: negative core charge=   -0.000176

     Initial potential from superposition of free atoms

     starting charge      15.9996, renormalised to      16.0000
     Starting wfcs are   13 randomized atomic wfcs
     Checking if some PAW data can be deallocated... 

     total cpu time spent up to now is        2.8 secs

     Self-consistent Calculation

     iteration #  1     ecut=    30.00 Ry     beta= 0.70
     Davidson diagonalization with overlap
     ethr =  1.00E-02,  avg # of iterations =  3.9

     total cpu time spent up to now is        3.4 secs

     total energy              =    -328.58115104 Ry
     estimated scf accuracy    <       0.26184052 Ry

     iteration #  2     ecut=    30.00 Ry     beta= 0.70
     Davidson diagonalization with overlap
     ethr =  1.64E-03,  avg # of iterations =  3.2

     negative rho (up, down):  1.546E-04 0.000E+00

     total cpu time spent up to now is        4.1 secs

     total energy              =    -328.23000010 Ry
     estimated scf accuracy    <       4.14712387 Ry

     iteration #  3     ecut=    30.00 Ry     beta= 0.70
     Davidson diagonalization with overlap
     ethr =  1.64E-03,  avg # of iterations =  3.0

     negative rho (up, down):  1.336E-06 0.000E+00

     total cpu time spent up to now is        4.8 secs

     total energy              =    -328.74041847 Ry
     estimated scf accuracy    <       0.02308418 Ry

     iteration #  4     ecut=    30.00 Ry     beta= 0.70
     Davidson diagonalization with overlap
     ethr =  1.44E-04,  avg # of iterations =  1.2

     total cpu time spent up to now is        5.4 secs

     total energy              =    -328.74167707 Ry
     estimated scf accuracy    <       0.01082793 Ry

     iteration #  5     ecut=    30.00 Ry     beta= 0.70
     Davidson diagonalization with overlap
     ethr =  6.77E-05,  avg # of iterations =  1.5

     total cpu time spent up to now is        6.1 secs

     total energy              =    -328.74307761 Ry
     estimated scf accuracy    <       0.00118711 Ry

     iteration #  6     ecut=    30.00 Ry     beta= 0.70
     Davidson diagonalization with overlap
     ethr =  7.42E-06,  avg # of iterations =  2.8

     total cpu time spent up to now is        6.7 secs

     total energy              =    -328.74322589 Ry
     estimated scf accuracy    <       0.00012770 Ry

     iteration #  7     ecut=    30.00 Ry     beta= 0.70
     Davidson diagonalization with overlap
     ethr =  7.98E-07,  avg # of iterations =  1.8

     total cpu time spent up to now is        7.3 secs

     total energy              =    -328.74323202 Ry
     estimated scf accuracy    <       0.00002327 Ry

     iteration #  8     ecut=    30.00 Ry     beta= 0.70
     Davidson diagonalization with overlap
     ethr =  1.45E-07,  avg # of iterations =  2.0

     total cpu time spent up to now is        8.0 secs

     total energy              =    -328.74323865 Ry
     estimated scf accuracy    <       0.00000107 Ry

     iteration #  9     ecut=    30.00 Ry     beta= 0.70
     Davidson diagonalization with overlap
     ethr =  6.67E-09,  avg # of iterations =  3.8

     total cpu time spent up to now is        8.7 secs

     total energy              =    -328.74323920 Ry
     estimated scf accuracy    <       0.00000003 Ry

     iteration # 10     ecut=    30.00 Ry     beta= 0.70
     Davidson diagonalization with overlap
     ethr =  2.10E-10,  avg # of iterations =  3.2

     total cpu time spent up to now is        9.3 secs

     End of self-consistent calculation

          k = 0.0000 0.0000 0.0000 (   835 PWs)   bands (ev):

   -85.0117 -50.6867 -50.5923 -50.5923  -1.9727   0.6642   1.0127   1.0127
     1.6394   1.6394   4.2821   5.9278

          k = 0.0000 0.0000 0.1340 (   811 PWs)   bands (ev):

   -85.0031 -50.6252 -50.5728 -50.5728  -1.8767   0.7628   1.0127   1.0127
     1.6390   1.6390   3.0333   7.9111

          k = 0.0000 0.0000-0.2680 (   798 PWs)   bands (ev):

   -84.9979 -50.5888 -50.5640 -50.5640  -1.7812   0.9418   1.0128   1.0128
     1.6387   1.6387   2.2236  10.5686

          k = 0.0000 0.2887 0.0000 (   827 PWs)   bands (ev):

   -85.0041 -50.6239 -50.6219 -50.5943  -0.5126   0.8869   0.9809   1.0444
     1.4528   1.5583   6.1612   7.1125

          k = 0.0000 0.2887 0.1340 (   828 PWs)   bands (ev):

   -85.0049 -50.6383 -50.6153 -50.5941  -0.4520   0.9036   0.9737   1.0977
     1.4529   1.5578   4.7142   9.3038

          k = 0.0000 0.2887-0.2680 (   820 PWs)   bands (ev):

   -85.0019 -50.6268 -50.6098 -50.5801  -0.3754   0.9211   0.9656   1.1800
     1.4530   1.5573   3.9927  12.1751

          k = 0.0000-0.5774 0.0000 (   832 PWs)   bands (ev):

   -85.0020 -50.6567 -50.6112 -50.6083  -0.0038   0.6787   1.2664   1.4783
     1.9408   4.2582   5.6295   9.7960

          k = 0.0000-0.5774 0.1340 (   836 PWs)   bands (ev):

   -85.0041 -50.6810 -50.6250 -50.5939  -0.0011   0.6635   1.2879   1.4775
     1.9408   4.3596   5.7932   8.4930

          k = 0.0000-0.5774-0.2680 (   828 PWs)   bands (ev):

   -85.0006 -50.6808 -50.6099 -50.5743   0.0028   0.6485   1.3104   1.4767
     1.9408   4.4954   6.0666   7.6431

          k = 0.2500 0.4330 0.0000 (   833 PWs)   bands (ev):

   -85.0022 -50.6438 -50.6281 -50.6074   0.6293   0.8498   0.9162   1.2801
     1.2886   3.6407   9.1177   9.2517

          k = 0.2500 0.4330 0.1340 (   835 PWs)   bands (ev):

   -85.0030 -50.6526 -50.6299 -50.6056   0.6308   0.8324   0.9219   1.2770
     1.3206   3.7578   7.5336   9.5753

          k = 0.2500 0.4330-0.2680 (   842 PWs)   bands (ev):

   -85.0061 -50.6547 -50.6372 -50.6294   0.6320   0.8183   0.9260   1.2739
     1.3515   3.9096   6.7797   9.8226

     the Fermi energy is     1.3927 ev

!    total energy              =    -328.74323923 Ry

     total all-electron energy =     -2545.039775 Ry
     estimated scf accuracy    <          2.5E-09 Ry
     smearing contrib. (-TS)   =      -0.03805936 Ry
     internal energy E=F+TS    =    -328.70517987 Ry

     The total energy is F=E-TS. E is the sum of the following terms:
     one-electron contribution =    -262.75322964 Ry
     hartree contribution      =     132.40416541 Ry
     xc contribution           =     -34.39503674 Ry
     ewald contribution        =     -87.89514741 Ry
     one-center paw contrib.   =     -76.06593149 Ry

     convergence has been achieved in  10 iterations

     Forces acting on atoms (cartesian axes, Ry/au):

     atom    1 type  1   force =     0.00000000    0.00000000    0.00000000

     Total force =     0.000000     Total SCF correction =     0.000000


     Computing stress (Cartesian axis) and pressure

          total   stress  (Ry/bohr**3)                   (kbar)     P=     -368.87
  -0.00277256  -0.00000000   0.00000000         -407.86       -0.00        0.00
  -0.00000000  -0.00277256   0.00000000           -0.00     -407.86        0.00
  -0.00000000   0.00000000  -0.00197737           -0.00        0.00     -290.88


     BFGS Geometry Optimization
     Energy error            =      0.0E+00 Ry
     Gradient error          =      0.0E+00 Ry/Bohr
     Cell gradient error     =      4.1E+02 kbar

     number of scf cycles    =   1
     number of bfgs steps    =   0

     enthalpy           new  =    -328.7432392273 Ry

     new trust radius        =       0.2398197997 bohr
ibrav =      4
 celldm(1) =      5.30490960
 celldm(3) =      1.90585849
Input lattice vectors:
     0.93068589    -0.00000000    -0.00000000
    -0.46534295     0.80599763     0.00000000
     0.00000000     0.00000000     1.77375561
New lattice vectors in INITIAL alat:
     0.93068589     0.00000000     0.00000000
    -0.46534295     0.80599763     0.00000000
     0.00000000     0.00000000     1.77375561
New lattice vectors in NEW alat (for information only):
     1.00000000     0.00000000     0.00000000
    -0.50000000     0.86602540     0.00000000
     0.00000000     0.00000000     1.90585849
Discrepancy in bohr =     0.000000    0.000000    0.000000

Atomic positions rescaled with new alat:
Fe            0.0000000000        0.0000000000        0.0000000000
     new conv_thr            =       0.0000000100 Ry

     new unit-cell volume =    246.40825 a.u.^3 (    36.51394 Ang^3 )
     density =      2.53966 g/cm^3

CELL_PARAMETERS (alat=  5.70000000)
   0.930685895   0.000000000   0.000000000
  -0.465342947   0.805997628   0.000000000
   0.000000000   0.000000000   1.773755613

ATOMIC_POSITIONS (alat)
Fe            0.0000000000        0.0000000000        0.0000000000



     Writing config-only to output data dir ./fe.save/
     NEW-OLD atomic charge density approx. for the potential

     Check: negative core charge=   -0.000105
     extrapolated charge   12.56746, renormalised to   16.00000

     total cpu time spent up to now is       14.1 secs

     Self-consistent Calculation

     iteration #  1     ecut=    30.00 Ry     beta= 0.70
     Davidson diagonalization with overlap
     ethr =  1.00E-06,  avg # of iterations = 11.6

     negative rho (up, down):  6.623E-06 0.000E+00

     total cpu time spent up to now is       15.2 secs

     total energy              =    -318.72898448 Ry
     estimated scf accuracy    <       9.53779047 Ry

     iteration #  2     ecut=    30.00 Ry     beta= 0.70
     Davidson diagonalization with overlap
     ethr =  1.00E-02,  avg # of iterations =  5.6

     total cpu time spent up to now is       16.0 secs

     total energy              =    -327.20835081 Ry
     estimated scf accuracy    <      51.32200524 Ry

     iteration #  3     ecut=    30.00 Ry     beta= 0.70
     Davidson diagonalization with overlap
     ethr =  1.00E-02,  avg # of iterations =  4.6

     negative rho (up, down):  2.979E-05 0.000E+00

     total cpu time spent up to now is       16.8 secs

     total energy              =    -328.91848965 Ry
     estimated scf accuracy    <       8.75960194 Ry

     iteration #  4     ecut=    30.00 Ry     beta= 0.70
     Davidson diagonalization with overlap
     ethr =  1.00E-02,  avg # of iterations =  2.1

     negative rho (up, down):  5.857E-05 0.000E+00

     total cpu time spent up to now is       17.5 secs

     total energy              =    -328.74068810 Ry
     estimated scf accuracy    <       2.63832320 Ry

     iteration #  5     ecut=    30.00 Ry     beta= 0.70
     Davidson diagonalization with overlap
     ethr =  1.00E-02,  avg # of iterations =  1.8

     negative rho (up, down):  8.613E-07 0.000E+00

     total cpu time spent up to now is       18.1 secs

     total energy              =    -328.86149627 Ry
     estimated scf accuracy    <       0.41881511 Ry

     iteration #  6     ecut=    30.00 Ry     beta= 0.70
     Davidson diagonalization with overlap
     ethr =  2.62E-03,  avg # of iterations =  1.5

     total cpu time spent up to now is       18.8 secs

     total energy              =    -328.86299125 Ry
     estimated scf accuracy    <       0.16455488 Ry

     iteration #  7     ecut=    30.00 Ry     beta= 0.70
     Davidson diagonalization with overlap
     ethr =  1.03E-03,  avg # of iterations =  1.8

     total cpu time spent up to now is       19.4 secs

     total energy              =    -328.87509268 Ry
     estimated scf accuracy    <       0.02421530 Ry

     iteration #  8     ecut=    30.00 Ry     beta= 0.70
     Davidson diagonalization with overlap
     ethr =  1.51E-04,  avg # of iterations =  3.2

     total cpu time spent up to now is       20.2 secs

     total energy              =    -328.88326628 Ry
     estimated scf accuracy    <       0.00087171 Ry

     iteration #  9     ecut=    30.00 Ry     beta= 0.70
     Davidson diagonalization with overlap
     ethr =  5.45E-06,  avg # of iterations =  4.2

     total cpu time spent up to now is       20.9 secs

     total energy              =    -328.88309851 Ry
     estimated scf accuracy    <       0.00489195 Ry

     iteration # 10     ecut=    30.00 Ry     beta= 0.70
     Davidson diagonalization with overlap
     ethr =  5.45E-06,  avg # of iterations =  2.0

     total cpu time spent up to now is       21.6 secs

     total energy              =    -328.88257685 Ry
     estimated scf accuracy    <       0.00183605 Ry

     iteration # 11     ecut=    30.00 Ry     beta= 0.70
     Davidson diagonalization with overlap
     ethr =  5.45E-06,  avg # of iterations =  2.6

     total cpu time spent up to now is       22.3 secs

     total energy              =    -328.88260184 Ry
     estimated scf accuracy    <       0.00006050 Ry

     iteration # 12     ecut=    30.00 Ry     beta= 0.70
     Davidson diagonalization with overlap
     ethr =  3.78E-07,  avg # of iterations =  2.9

     total cpu time spent up to now is       23.0 secs

     total energy              =    -328.88243711 Ry
     estimated scf accuracy    <       0.00012827 Ry

     iteration # 13     ecut=    30.00 Ry     beta= 0.70
     Davidson diagonalization with overlap
     ethr =  3.78E-07,  avg # of iterations =  2.8

     total cpu time spent up to now is       23.6 secs

     total energy              =    -328.88313259 Ry
     estimated scf accuracy    <       0.00022125 Ry

     iteration # 14     ecut=    30.00 Ry     beta= 0.70
     Davidson diagonalization with overlap
     ethr =  3.78E-07,  avg # of iterations =  1.0

     total cpu time spent up to now is       24.3 secs

     total energy              =    -328.88310495 Ry
     estimated scf accuracy    <       0.00025550 Ry

     iteration # 15     ecut=    30.00 Ry     beta= 0.70
     Davidson diagonalization with overlap
     ethr =  3.78E-07,  avg # of iterations =  1.0

     total cpu time spent up to now is       25.0 secs

     total energy              =    -328.88310726 Ry
     estimated scf accuracy    <       0.00016769 Ry

     iteration # 16     ecut=    30.00 Ry     beta= 0.70
     Davidson diagonalization with overlap
     ethr =  3.78E-07,  avg # of iterations =  1.0

     total cpu time spent up to now is       25.6 secs

     total energy              =    -328.88309401 Ry
     estimated scf accuracy    <       0.00019618 Ry

     iteration # 17     ecut=    30.00 Ry     beta= 0.70
     Davidson diagonalization with overlap
     ethr =  3.78E-07,  avg # of iterations =  1.0

     total cpu time spent up to now is       26.3 secs

     total energy              =    -328.88307165 Ry
     estimated scf accuracy    <       0.00012588 Ry

     iteration # 18     ecut=    30.00 Ry     beta= 0.70
     Davidson diagonalization with overlap
     ethr =  3.78E-07,  avg # of iterations =  1.0

     total cpu time spent up to now is       27.0 secs

     total energy              =    -328.88308916 Ry
     estimated scf accuracy    <       0.00000431 Ry

     iteration # 19     ecut=    30.00 Ry     beta= 0.70
     Davidson diagonalization with overlap
     ethr =  2.69E-08,  avg # of iterations =  1.6

     total cpu time spent up to now is       27.7 secs

     total energy              =    -328.88308829 Ry
     estimated scf accuracy    <       0.00004230 Ry

     iteration # 20     ecut=    30.00 Ry     beta= 0.70
     Davidson diagonalization with overlap
     ethr =  2.69E-08,  avg # of iterations =  1.2

     total cpu time spent up to now is       28.4 secs

     total energy              =    -328.88309075 Ry
     estimated scf accuracy    <       0.00000599 Ry

     iteration # 21     ecut=    30.00 Ry     beta= 0.70
     Davidson diagonalization with overlap
     ethr =  2.69E-08,  avg # of iterations =  1.0

     total cpu time spent up to now is       29.0 secs

     total energy              =    -328.88309136 Ry
     estimated scf accuracy    <       0.00000088 Ry

     iteration # 22     ecut=    30.00 Ry     beta= 0.70
     Davidson diagonalization with overlap
     ethr =  5.47E-09,  avg # of iterations =  1.0

     total cpu time spent up to now is       29.7 secs

     End of self-consistent calculation

          k = 0.0000 0.0000 0.0000 (   835 PWs)   bands (ev):

   -83.9516 -49.7621 -49.6738 -49.6738  -1.4665   1.6309   2.0693   2.0693
     2.8832   2.8832   5.3589   7.7129

          k = 0.0000 0.0000 0.1409 (   811 PWs)   bands (ev):

   -83.9488 -49.7083 -49.6561 -49.6561  -1.3674   1.7514   2.0696   2.0696
     2.8832   2.8832   4.1560   9.7220

          k = 0.0000 0.0000-0.2819 (   798 PWs)   bands (ev):

   -83.9469 -49.6752 -49.6482 -49.6482  -1.2693   1.9746   2.0697   2.0697
     2.8830   2.8830   3.2807  12.4655

          k = 0.0000 0.3102 0.0000 (   827 PWs)   bands (ev):

   -83.9432 -49.7275 -49.7033 -49.6818   0.2061   1.8779   2.0202   2.0661
     2.6722   2.7695   7.6679   9.0325

          k = 0.0000 0.3102 0.1409 (   828 PWs)   bands (ev):

   -83.9435 -49.7344 -49.7033 -49.6815   0.2647   1.8896   1.9649   2.1796
     2.6724   2.7690   6.2009  11.3136

          k = 0.0000 0.3102-0.2819 (   820 PWs)   bands (ev):

   -83.9426 -49.7328 -49.6905 -49.6685   0.3440   1.9164   1.9287   2.2932
     2.6726   2.7687   5.4261  14.3543

          k = 0.0000-0.6203 0.0000 (   832 PWs)   bands (ev):

   -83.9369 -49.7877 -49.7016 -49.6872   0.6996   1.5264   2.4721   2.6573
     3.3499   5.5433   7.7580  11.8125

          k = 0.0000-0.6203 0.1409 (   836 PWs)   bands (ev):

   -83.9377 -49.8078 -49.6994 -49.6899   0.7014   1.5082   2.4986   2.6566
     3.3500   5.6259   7.9484  10.5183

          k = 0.0000-0.6203-0.2819 (   828 PWs)   bands (ev):

   -83.9366 -49.8074 -49.6878 -49.6722   0.7052   1.4907   2.5263   2.6560
     3.3499   5.7585   8.2995   9.5653

          k = 0.2686 0.4653 0.0000 (   833 PWs)   bands (ev):

   -83.9369 -49.7649 -49.7283 -49.6849   1.5199   1.7619   1.9155   2.3731
     2.4840   5.2390  11.0955  11.5578

          k = 0.2686 0.4653 0.1409 (   835 PWs)   bands (ev):

   -83.9370 -49.7720 -49.7288 -49.6834   1.5217   1.7414   1.9229   2.3695
     2.5221   5.3615   9.4496  12.1139

          k = 0.2686 0.4653-0.2819 (   842 PWs)   bands (ev):

   -83.9381 -49.7749 -49.7353 -49.7042   1.5228   1.7236   1.9299   2.3658
     2.5608   5.5199   8.6279  12.4112

     the Fermi energy is     2.5213 ev

!    total energy              =    -328.88309162 Ry

     total all-electron energy =     -2545.179627 Ry
     estimated scf accuracy    <          4.0E-09 Ry
     smearing contrib. (-TS)   =      -0.02485415 Ry
     internal energy E=F+TS    =    -328.85823747 Ry

     The total energy is F=E-TS. E is the sum of the following terms:
     one-electron contribution =    -255.66594500 Ry
     hartree contribution      =     129.43753511 Ry
     xc contribution           =     -34.41814115 Ry
     ewald contribution        =     -92.11560551 Ry
     one-center paw contrib.   =     -76.09608092 Ry

     convergence has been achieved in  22 iterations

     Forces acting on atoms (cartesian axes, Ry/au):

     atom    1 type  1   force =     0.00000000    0.00000000    0.00000000

     Total force =     0.000000     Total SCF correction =     0.000000


     Computing stress (Cartesian axis) and pressure

          total   stress  (Ry/bohr**3)                   (kbar)     P=     -395.99
  -0.00301074   0.00000000   0.00000000         -442.89        0.00        0.00
   0.00000000  -0.00301074  -0.00000000            0.00     -442.89       -0.00
   0.00000000  -0.00000000  -0.00205421            0.00       -0.00     -302.18

     Energy error            =      1.4E-01 Ry
     Gradient error          =      0.0E+00 Ry/Bohr
     Cell gradient error     =      4.4E+02 kbar

     number of scf cycles    =   2
     number of bfgs steps    =   1

     enthalpy           old  =    -328.7432392273 Ry
     enthalpy           new  =    -328.8830916185 Ry

     CASE: enthalpy          _new < enthalpy          _old


     WARNING: bfgs curvature condition failed, Theta= 0.844
     new trust radius        =       0.3507255191 bohr
ibrav =      4
 celldm(1) =      4.71227400
 celldm(3) =      1.98450324
Input lattice vectors:
     0.82671474     0.00000000     0.00000000
    -0.41335737     0.71595596    -0.00000000
     0.00000000    -0.00000000     1.64061807
New lattice vectors in INITIAL alat:
     0.82671474     0.00000000     0.00000000
    -0.41335737     0.71595596     0.00000000
     0.00000000     0.00000000     1.64061807
New lattice vectors in NEW alat (for information only):
     1.00000000     0.00000000     0.00000000
    -0.50000000     0.86602540     0.00000000
     0.00000000     0.00000000     1.98450324
Discrepancy in bohr =     0.000000    0.000000    0.000000

Atomic positions rescaled with new alat:
Fe            0.0000000000        0.0000000000        0.0000000000
     new conv_thr            =            1.0E-10 Ry

     new unit-cell volume =    179.83493 a.u.^3 (    26.64879 Ang^3 )
     density =      3.47981 g/cm^3

CELL_PARAMETERS (alat=  5.70000000)
   0.826714737   0.000000000   0.000000000
  -0.413357368   0.715955964   0.000000000
   0.000000000   0.000000000   1.640618071

ATOMIC_POSITIONS (alat)
Fe            0.0000000000        0.0000000000        0.0000000000



     Writing config-only to output data dir ./fe.save/
     NEW-OLD atomic charge density approx. for the potential

     Check: negative core charge=   -0.000040
     extrapolated charge   10.07710, renormalised to   16.00000

     total cpu time spent up to now is       34.5 secs

     Self-consistent Calculation

     iteration #  1     ecut=    30.00 Ry     beta= 0.70
     Davidson diagonalization with overlap
     c_bands:  1 eigenvalues not converged
     ethr =  1.00E-06,  avg # of iterations = 14.8

     total cpu time spent up to now is       35.6 secs

     total energy              =    -311.30990187 Ry
     estimated scf accuracy    <      19.52749484 Ry

     iteration #  2     ecut=    30.00 Ry     beta= 0.70
     Davidson diagonalization with overlap
     ethr =  1.00E-02,  avg # of iterations =  5.3

     total cpu time spent up to now is       36.3 secs

     total energy              =    -324.65109036 Ry
     estimated scf accuracy    <      60.16887953 Ry

     iteration #  3     ecut=    30.00 Ry     beta= 0.70
     Davidson diagonalization with overlap
     ethr =  1.00E-02,  avg # of iterations =  4.4

     total cpu time spent up to now is       37.1 secs

     total energy              =    -328.81849649 Ry
     estimated scf accuracy    <       6.76807646 Ry

     iteration #  4     ecut=    30.00 Ry     beta= 0.70
     Davidson diagonalization with overlap
     ethr =  1.00E-02,  avg # of iterations =  2.5

     total cpu time spent up to now is       37.8 secs

     total energy              =    -328.96140385 Ry
     estimated scf accuracy    <       1.24970470 Ry

     iteration #  5     ecut=    30.00 Ry     beta= 0.70
     Davidson diagonalization with overlap
     ethr =  7.81E-03,  avg # of iterations =  2.2

     total cpu time spent up to now is       38.5 secs

     total energy              =    -328.97889292 Ry
     estimated scf accuracy    <       0.30343819 Ry

     iteration #  6     ecut=    30.00 Ry     beta= 0.70
     Davidson diagonalization with overlap
     ethr =  1.90E-03,  avg # of iterations =  3.6

     total cpu time spent up to now is       39.2 secs

     total energy              =    -329.06147515 Ry
     estimated scf accuracy    <       0.00600023 Ry

     iteration #  7     ecut=    30.00 Ry     beta= 0.70
     Davidson diagonalization with overlap
     ethr =  3.75E-05,  avg # of iterations =  4.8

     total cpu time spent up to now is       39.9 secs

     total energy              =    -329.06852172 Ry
     estimated scf accuracy    <       0.00043443 Ry

     iteration #  8     ecut=    30.00 Ry     beta= 0.70
     Davidson diagonalization with overlap
     ethr =  2.72E-06,  avg # of iterations =  3.9

     total cpu time spent up to now is       40.6 secs

     total energy              =    -329.06940699 Ry
     estimated scf accuracy    <       0.00390408 Ry

     iteration #  9     ecut=    30.00 Ry     beta= 0.70
     Davidson diagonalization with overlap
     ethr =  2.72E-06,  avg # of iterations =  2.0

     total cpu time spent up to now is       41.3 secs

     total energy              =    -329.06924736 Ry
     estimated scf accuracy    <       0.00088963 Ry

     iteration # 10     ecut=    30.00 Ry     beta= 0.70
     Davidson diagonalization with overlap
     ethr =  2.72E-06,  avg # of iterations =  2.4

     total cpu time spent up to now is       42.0 secs

     total energy              =    -329.06936574 Ry
     estimated scf accuracy    <       0.00001947 Ry

     iteration # 11     ecut=    30.00 Ry     beta= 0.70
     Davidson diagonalization with overlap
     ethr =  1.22E-07,  avg # of iterations =  3.0

     total cpu time spent up to now is       42.7 secs

     total energy              =    -329.06930712 Ry
     estimated scf accuracy    <       0.00000663 Ry

     iteration # 12     ecut=    30.00 Ry     beta= 0.70
     Davidson diagonalization with overlap
     ethr =  4.14E-08,  avg # of iterations =  1.2

     total cpu time spent up to now is       43.3 secs

     total energy              =    -329.06930931 Ry
     estimated scf accuracy    <       0.00000180 Ry

     iteration # 13     ecut=    30.00 Ry     beta= 0.70
     Davidson diagonalization with overlap
     ethr =  1.12E-08,  avg # of iterations =  1.6

     total cpu time spent up to now is       44.0 secs

     total energy              =    -329.06930960 Ry
     estimated scf accuracy    <       0.00000048 Ry

     iteration # 14     ecut=    30.00 Ry     beta= 0.70
     Davidson diagonalization with overlap
     ethr =  3.00E-09,  avg # of iterations =  1.4

     total cpu time spent up to now is       44.7 secs

     total energy              =    -329.06930967 Ry
     estimated scf accuracy    <       0.00000029 Ry

     iteration # 15     ecut=    30.00 Ry     beta= 0.70
     Davidson diagonalization with overlap
     ethr =  1.80E-09,  avg # of iterations =  2.2

     total cpu time spent up to now is       45.3 secs

     total energy              =    -329.06930976 Ry
     estimated scf accuracy    <       0.00000005 Ry

     iteration # 16     ecut=    30.00 Ry     beta= 0.70
     Davidson diagonalization with overlap
     ethr =  3.18E-10,  avg # of iterations =  2.5

     total cpu time spent up to now is       46.0 secs

     total energy              =    -329.06920507 Ry
     estimated scf accuracy    <       0.00000004 Ry

     iteration # 17     ecut=    30.00 Ry     beta= 0.70
     Davidson diagonalization with overlap
     ethr =  2.49E-10,  avg # of iterations =  1.5

     total cpu time spent up to now is       46.6 secs

     total energy              =    -329.06920489 Ry
     estimated scf accuracy    <       0.00000004 Ry

     iteration # 18     ecut=    30.00 Ry     beta= 0.70
     Davidson diagonalization with overlap
     ethr =  2.45E-10,  avg # of iterations =  1.0

     total cpu time spent up to now is       47.3 secs

     total energy              =    -329.06920479 Ry
     estimated scf accuracy    <       0.00000007 Ry

     iteration # 19     ecut=    30.00 Ry     beta= 0.70
     Davidson diagonalization with overlap
     ethr =  2.45E-10,  avg # of iterations =  1.0

     total cpu time spent up to now is       47.9 secs

     total energy              =    -329.06920471 Ry
     estimated scf accuracy    <       0.00000009 Ry

     iteration # 20     ecut=    30.00 Ry     beta= 0.70
     Davidson diagonalization with overlap
     ethr =  2.45E-10,  avg # of iterations =  1.0

     total cpu time spent up to now is       48.5 secs

     total energy              =    -329.06920504 Ry
     estimated scf accuracy    <       0.00000010 Ry

     iteration # 21     ecut=    30.00 Ry     beta= 0.70
     Davidson diagonalization with overlap
     ethr =  2.45E-10,  avg # of iterations =  1.0

     total cpu time spent up to now is       49.2 secs

     total energy              =    -329.06920512 Ry
     estimated scf accuracy    <       0.00000002 Ry

     iteration # 22     ecut=    30.00 Ry     beta= 0.70
     Davidson diagonalization with overlap
     ethr =  1.56E-10,  avg # of iterations =  1.0

     total cpu time spent up to now is       49.8 secs

     total energy              =    -329.06920510 Ry
     estimated scf accuracy    <          9.7E-09 Ry

     iteration # 23     ecut=    30.00 Ry     beta= 0.70
     Davidson diagonalization with overlap
     ethr =  6.07E-11,  avg # of iterations =  1.0

     total cpu time spent up to now is       50.5 secs

     total energy              =    -329.06920514 Ry
     estimated scf accuracy    <       0.00000001 Ry

     iteration # 24     ecut=    30.00 Ry     beta= 0.70
     Davidson diagonalization with overlap
     ethr =  6.07E-11,  avg # of iterations =  1.0

     total cpu time spent up to now is       51.1 secs

     total energy              =    -329.06920514 Ry
     estimated scf accuracy    <          4.0E-10 Ry

     iteration # 25     ecut=    30.00 Ry     beta= 0.70
     Davidson diagonalization with overlap
     ethr =  2.50E-12,  avg # of iterations =  1.8

     total cpu time spent up to now is       51.7 secs

     End of self-consistent calculation

          k = 0.0000 0.0000 0.0000 (   835 PWs)   bands (ev):

   -81.7126 -47.7268 -47.5316 -47.5316  -0.1900   3.4825   4.1781   4.1781
     5.5307   5.5307   7.2924  11.3500

          k = 0.0000 0.0000 0.1524 (   811 PWs)   bands (ev):

   -81.7126 -47.6980 -47.5227 -47.5227  -0.0937   3.6499   4.1783   4.1783
     5.5307   5.5307   6.2168  13.3275

          k = 0.0000 0.0000-0.3048 (   798 PWs)   bands (ev):

   -81.7126 -47.6775 -47.5181 -47.5181   0.0038   3.9774   4.1784   4.1784
     5.2447   5.5306   5.5306  16.2573

          k = 0.0000 0.3492 0.0000 (   827 PWs)   bands (ev):

   -81.6841 -47.7071 -47.6742 -47.5702   1.7882   3.8506   3.9597   4.2223
     5.1750   5.3342  10.5309  12.8848

          k = 0.0000 0.3492 0.1524 (   828 PWs)   bands (ev):

   -81.6842 -47.7101 -47.6750 -47.5699   1.8399   3.8227   3.9293   4.3768
     5.1753   5.3336   9.0944  15.2484

          k = 0.0000 0.3492-0.3048 (   820 PWs)   bands (ev):

   -81.6842 -47.7107 -47.6667 -47.5627   1.9094   3.7987   3.9251   4.5461
     5.1756   5.3333   8.2397  18.7288

          k = 0.0000-0.6984 0.0000 (   832 PWs)   bands (ev):

   -81.6555 -47.8863 -47.6427 -47.6152   2.0236   3.1863   4.9568   5.1420
     6.3272   8.0545  12.2575  15.5439

          k = 0.0000-0.6984 0.1524 (   836 PWs)   bands (ev):

   -81.6555 -47.8939 -47.6498 -47.6113   2.0258   3.1641   4.9930   5.1412
     6.3273   8.1198  12.4589  14.4473

          k = 0.0000-0.6984-0.3048 (   828 PWs)   bands (ev):

   -81.6556 -47.8938 -47.6454 -47.6022   2.0291   3.1425   5.0303   5.1406
     6.3272   8.2482  13.0896  13.2396

          k = 0.3024 0.5238 0.0000 (   833 PWs)   bands (ev):

   -81.6556 -47.8181 -47.6843 -47.6424   3.2261   3.5726   3.8972   4.6356
     4.9542   8.5953  14.8396  16.6415

          k = 0.3024 0.5238 0.1524 (   835 PWs)   bands (ev):

   -81.6556 -47.8210 -47.6833 -47.6412   3.2284   3.5464   3.9067   4.6310
     5.0064   8.7340  13.1553  16.8558

          k = 0.3024 0.5238-0.3048 (   842 PWs)   bands (ev):

   -81.6556 -47.8230 -47.6862 -47.6541   3.2290   3.5221   3.9156   4.6262
     5.0594   8.9136  12.2236  17.1167

     the Fermi energy is     4.9199 ev

!    total energy              =    -329.06920514 Ry

     total all-electron energy =     -2545.365741 Ry
     estimated scf accuracy    <          8.4E-11 Ry
     smearing contrib. (-TS)   =      -0.01057354 Ry
     internal energy E=F+TS    =    -329.05863160 Ry

     The total energy is F=E-TS. E is the sum of the following terms:
     one-electron contribution =    -245.44956659 Ry
     hartree contribution      =     125.56909908 Ry
     xc contribution           =     -34.50663536 Ry
     ewald contribution        =     -98.53446511 Ry
     one-center paw contrib.   =     -76.13706362 Ry

     convergence has been achieved in  25 iterations

     Forces acting on atoms (cartesian axes, Ry/au):

     atom    1 type  1   force =     0.00000000    0.00000000    0.00000000

     Total force =     0.000000     Total SCF correction =     0.000000


     Computing stress (Cartesian axis) and pressure

          total   stress  (Ry/bohr**3)                   (kbar)     P=     -356.78
  -0.00258501   0.00000000   0.00000000         -380.27        0.00        0.00
   0.00000000  -0.00258501   0.00000000            0.00     -380.27        0.00
  -0.00000000  -0.00000000  -0.00210590           -0.00       -0.00     -309.79

     Energy error            =      1.9E-01 Ry
     Gradient error          =      0.0E+00 Ry/Bohr
     Cell gradient error     =      3.8E+02 kbar

     number of scf cycles    =   3
     number of bfgs steps    =   2

     enthalpy           old  =    -328.8830916185 Ry
     enthalpy           new  =    -329.0692051437 Ry

     CASE: enthalpy          _new < enthalpy          _old

     new trust radius        =       0.5059591797 bohr
ibrav =      4
 celldm(1) =      3.82332060
 celldm(3) =      2.12139795
Input lattice vectors:
     0.67075800     0.00000000    -0.00000000
    -0.33537900     0.58089347    -0.00000000
     0.00000000     0.00000000     1.42294465
New lattice vectors in INITIAL alat:
     0.67075800     0.00000000     0.00000000
    -0.33537900     0.58089347     0.00000000
     0.00000000     0.00000000     1.42294465
New lattice vectors in NEW alat (for information only):
     1.00000000     0.00000000     0.00000000
    -0.50000000     0.86602540     0.00000000
     0.00000000     0.00000000     2.12139795
Discrepancy in bohr =     0.000000    0.000000    0.000000

Atomic positions rescaled with new alat:
Fe            0.0000000000        0.0000000000        0.0000000000
     new conv_thr            =            1.0E-10 Ry

     new unit-cell volume =    102.67742 a.u.^3 (    15.21522 Ang^3 )
     density =      6.09474 g/cm^3

CELL_PARAMETERS (alat=  5.70000000)
   0.670758000   0.000000000   0.000000000
  -0.335379000   0.580893468   0.000000000
   0.000000000   0.000000000   1.422944646

ATOMIC_POSITIONS (alat)
Fe            0.0000000000        0.0000000000        0.0000000000



     Writing config-only to output data dir ./fe.save/
     NEW-OLD atomic charge density approx. for the potential

     Check: negative core charge=   -0.000028

     negative rho (up, down):  7.838E-01 0.000E+00
     extrapolated charge    3.97704, renormalised to   16.00000

     total cpu time spent up to now is       56.6 secs

     Self-consistent Calculation

     iteration #  1     ecut=    30.00 Ry     beta= 0.70
     Davidson diagonalization with overlap
     ethr =  1.00E-06,  avg # of iterations = 14.6

     total cpu time spent up to now is       57.7 secs

     total energy              =    -293.90850139 Ry
     estimated scf accuracy    <     156.10867723 Ry

     iteration #  2     ecut=    30.00 Ry     beta= 0.70
     Davidson diagonalization with overlap
     ethr =  1.00E-02,  avg # of iterations =  6.5

     total cpu time spent up to now is       58.5 secs

     total energy              =    -311.63151721 Ry
     estimated scf accuracy    <      43.18760707 Ry

     iteration #  3     ecut=    30.00 Ry     beta= 0.70
     Davidson diagonalization with overlap
     ethr =  1.00E-02,  avg # of iterations =  6.1

     total cpu time spent up to now is       59.3 secs

     total energy              =    -329.06354792 Ry
     estimated scf accuracy    <      10.94005763 Ry

     iteration #  4     ecut=    30.00 Ry     beta= 0.70
     Davidson diagonalization with overlap
     ethr =  1.00E-02,  avg # of iterations =  2.2

     total cpu time spent up to now is       60.0 secs

     total energy              =    -329.38424332 Ry
     estimated scf accuracy    <       2.08602553 Ry

     iteration #  5     ecut=    30.00 Ry     beta= 0.70
     Davidson diagonalization with overlap
     ethr =  1.00E-02,  avg # of iterations =  1.2

     total cpu time spent up to now is       60.6 secs

     total energy              =    -328.60344471 Ry
     estimated scf accuracy    <       1.20035258 Ry

     iteration #  6     ecut=    30.00 Ry     beta= 0.70
     Davidson diagonalization with overlap
     ethr =  7.50E-03,  avg # of iterations =  2.2

     total cpu time spent up to now is       61.3 secs

     total energy              =    -328.60798417 Ry
     estimated scf accuracy    <       1.12936653 Ry

     iteration #  7     ecut=    30.00 Ry     beta= 0.70
     Davidson diagonalization with overlap
     ethr =  7.06E-03,  avg # of iterations =  2.0

     total cpu time spent up to now is       62.0 secs

     total energy              =    -328.93667832 Ry
     estimated scf accuracy    <       0.97147285 Ry

     iteration #  8     ecut=    30.00 Ry     beta= 0.70
     Davidson diagonalization with overlap
     ethr =  6.07E-03,  avg # of iterations =  1.2

     total cpu time spent up to now is       62.7 secs

     total energy              =    -329.05131666 Ry
     estimated scf accuracy    <       0.02591011 Ry

     iteration #  9     ecut=    30.00 Ry     beta= 0.70
     Davidson diagonalization with overlap
     ethr =  1.62E-04,  avg # of iterations =  2.2

     total cpu time spent up to now is       63.3 secs

     total energy              =    -329.04335937 Ry
     estimated scf accuracy    <       0.02719161 Ry

     iteration # 10     ecut=    30.00 Ry     beta= 0.70
     Davidson diagonalization with overlap
     ethr =  1.62E-04,  avg # of iterations =  1.2

     total cpu time spent up to now is       64.0 secs

     total energy              =    -329.04300290 Ry
     estimated scf accuracy    <       0.00458995 Ry

     iteration # 11     ecut=    30.00 Ry     beta= 0.70
     Davidson diagonalization with overlap
     ethr =  2.87E-05,  avg # of iterations =  2.5

     total cpu time spent up to now is       64.7 secs

     total energy              =    -329.04404836 Ry
     estimated scf accuracy    <       0.00117834 Ry

     iteration # 12     ecut=    30.00 Ry     beta= 0.70
     Davidson diagonalization with overlap
     ethr =  7.36E-06,  avg # of iterations =  2.2

     total cpu time spent up to now is       65.4 secs

     total energy              =    -329.04380220 Ry
     estimated scf accuracy    <       0.00100612 Ry

     iteration # 13     ecut=    30.00 Ry     beta= 0.70
     Davidson diagonalization with overlap
     ethr =  6.29E-06,  avg # of iterations =  1.2

     total cpu time spent up to now is       66.0 secs

     total energy              =    -329.04393316 Ry
     estimated scf accuracy    <       0.00026364 Ry

     iteration # 14     ecut=    30.00 Ry     beta= 0.70
     Davidson diagonalization with overlap
     ethr =  1.65E-06,  avg # of iterations =  1.8

     total cpu time spent up to now is       66.7 secs

     total energy              =    -329.04394848 Ry
     estimated scf accuracy    <       0.00010320 Ry

     iteration # 15     ecut=    30.00 Ry     beta= 0.70
     Davidson diagonalization with overlap
     ethr =  6.45E-07,  avg # of iterations =  1.4

     total cpu time spent up to now is       67.3 secs

     total energy              =    -329.04395572 Ry
     estimated scf accuracy    <       0.00002750 Ry

     iteration # 16     ecut=    30.00 Ry     beta= 0.70
     Davidson diagonalization with overlap
     ethr =  1.72E-07,  avg # of iterations =  1.9

     total cpu time spent up to now is       68.0 secs

     total energy              =    -329.04395867 Ry
     estimated scf accuracy    <       0.00002019 Ry

     iteration # 17     ecut=    30.00 Ry     beta= 0.70
     Davidson diagonalization with overlap
     ethr =  1.26E-07,  avg # of iterations =  1.0

     total cpu time spent up to now is       68.6 secs

     total energy              =    -329.04395919 Ry
     estimated scf accuracy    <       0.00001955 Ry

     iteration # 18     ecut=    30.00 Ry     beta= 0.70
     Davidson diagonalization with overlap
     ethr =  1.22E-07,  avg # of iterations =  1.0

     total cpu time spent up to now is       69.3 secs

     total energy              =    -329.04395882 Ry
     estimated scf accuracy    <       0.00002050 Ry

     iteration # 19     ecut=    30.00 Ry     beta= 0.70
     Davidson diagonalization with overlap
     ethr =  1.22E-07,  avg # of iterations =  1.0

     total cpu time spent up to now is       69.9 secs

     total energy              =    -329.04395874 Ry
     estimated scf accuracy    <       0.00001656 Ry

     iteration # 20     ecut=    30.00 Ry     beta= 0.70
     Davidson diagonalization with overlap
     ethr =  1.04E-07,  avg # of iterations =  1.0

     total cpu time spent up to now is       70.6 secs

     total energy              =    -329.04395636 Ry
     estimated scf accuracy    <       0.00001112 Ry

     iteration # 21     ecut=    30.00 Ry     beta= 0.70
     Davidson diagonalization with overlap
     ethr =  6.95E-08,  avg # of iterations =  1.0

     total cpu time spent up to now is       71.2 secs

     total energy              =    -329.04395449 Ry
     estimated scf accuracy    <       0.00000538 Ry

     iteration # 22     ecut=    30.00 Ry     beta= 0.70
     Davidson diagonalization with overlap
     ethr =  3.36E-08,  avg # of iterations =  1.7

     total cpu time spent up to now is       71.9 secs

     total energy              =    -329.04395440 Ry
     estimated scf accuracy    <       0.00000092 Ry

     iteration # 23     ecut=    30.00 Ry     beta= 0.70
     Davidson diagonalization with overlap
     ethr =  5.73E-09,  avg # of iterations =  3.8

     total cpu time spent up to now is       72.6 secs

     total energy              =    -329.04395448 Ry
     estimated scf accuracy    <       0.00000148 Ry

     iteration # 24     ecut=    30.00 Ry     beta= 0.70
     Davidson diagonalization with overlap
     ethr =  5.73E-09,  avg # of iterations =  2.0

     total cpu time spent up to now is       73.3 secs

     total energy              =    -329.04395457 Ry
     estimated scf accuracy    <       0.00000005 Ry

     iteration # 25     ecut=    30.00 Ry     beta= 0.70
     Davidson diagonalization with overlap
     ethr =  3.07E-10,  avg # of iterations =  4.4

     total cpu time spent up to now is       74.0 secs

     total energy              =    -329.04395461 Ry
     estimated scf accuracy    <       0.00000003 Ry

     iteration # 26     ecut=    30.00 Ry     beta= 0.70
     Davidson diagonalization with overlap
     ethr =  1.58E-10,  avg # of iterations =  1.2

     total cpu time spent up to now is       74.7 secs

     total energy              =    -329.04395461 Ry
     estimated scf accuracy    <          4.4E-09 Ry

     iteration # 27     ecut=    30.00 Ry     beta= 0.70
     Davidson diagonalization with overlap
     ethr =  2.77E-11,  avg # of iterations =  2.0

     total cpu time spent up to now is       75.4 secs

     total energy              =    -329.04395461 Ry
     estimated scf accuracy    <          2.2E-10 Ry

     iteration # 28     ecut=    30.00 Ry     beta= 0.70
     Davidson diagonalization with overlap
     ethr =  1.35E-12,  avg # of iterations =  4.2

     total cpu time spent up to now is       76.1 secs

     End of self-consistent calculation

          k = 0.0000 0.0000 0.0000 (   835 PWs)   bands (ev):

   -75.9197 -41.6291 -40.5934 -40.5934   4.8646   8.1216   9.8227   9.8227
    13.3118  13.3118  13.6065  20.0354

          k = 0.0000 0.0000 0.1757 (   811 PWs)   bands (ev):

   -75.9192 -41.6292 -40.5930 -40.5930   4.9701   8.4824   9.8228   9.8228
    12.0971  13.3115  13.3115  22.2949

          k = 0.0000 0.0000-0.3514 (   798 PWs)   bands (ev):

   -75.9189 -41.6295 -40.5930 -40.5930   5.0745   9.3037   9.8229   9.8229
    10.4460  13.3111  13.3111  25.1790

          k = 0.0000 0.4304 0.0000 (   827 PWs)   bands (ev):

   -75.6114 -41.8333 -41.4246 -40.8681   6.7274   9.2392   9.9076  10.0865
    12.1837  12.8074  19.1404  22.2236

          k = 0.0000 0.4304 0.1757 (   828 PWs)   bands (ev):

   -75.6114 -41.8333 -41.4248 -40.8682   6.7506   9.0164  10.0649  10.4739
    12.1838  12.8066  17.0097  25.3729

          k = 0.0000 0.4304-0.3514 (   820 PWs)   bands (ev):

   -75.6112 -41.8333 -41.4249 -40.8680   6.7738   8.8910  10.0702  11.0283
    12.1839  12.8058  15.6197  29.4423

          k = 0.0000-0.8607 0.0000 (   832 PWs)   bands (ev):

   -75.2908 -43.0140 -41.2163 -41.1347   5.3828   7.4718  11.9903  12.3246
    14.9848  17.1735  23.9332  25.9525

          k = 0.0000-0.8607 0.1757 (   836 PWs)   bands (ev):

   -75.2909 -43.0143 -41.2162 -41.1344   5.3850   7.4383  12.0633  12.3233
    14.9848  17.4340  23.2075  26.2814

          k = 0.0000-0.8607-0.3514 (   828 PWs)   bands (ev):

   -75.2908 -43.0143 -41.2162 -41.1341   5.3872   7.4054  12.1391  12.3220
    14.9848  17.7243  22.6483  25.4003

          k = 0.3727 0.6456 0.0000 (   833 PWs)   bands (ev):

   -75.2920 -42.5612 -41.6355 -41.2167   7.9307   8.3645  10.0460  10.9628
    11.9745  18.5810  25.3858  27.2586

          k = 0.3727 0.6456 0.1757 (   835 PWs)   bands (ev):

   -75.2920 -42.5613 -41.6356 -41.2168   7.9331   8.3210  10.0556  10.9546
    12.0936  18.9031  22.9505  30.2982

          k = 0.3727 0.6456-0.3514 (   842 PWs)   bands (ev):

   -75.2922 -42.5613 -41.6357 -41.2170   7.9353   8.2793  10.0644  10.9463
    12.2146  19.4990  21.3416  31.1213

     the Fermi energy is    11.9554 ev

!    total energy              =    -329.04395461 Ry

     total all-electron energy =     -2545.340490 Ry
     estimated scf accuracy    <          2.9E-12 Ry
     smearing contrib. (-TS)   =      -0.00755677 Ry
     internal energy E=F+TS    =    -329.03639784 Ry

     The total energy is F=E-TS. E is the sum of the following terms:
     one-electron contribution =    -228.27763235 Ry
     hartree contribution      =     120.68529352 Ry
     xc contribution           =     -34.91853763 Ry
     ewald contribution        =    -110.36114072 Ry
     one-center paw contrib.   =     -76.16438065 Ry

     convergence has been achieved in  28 iterations

     Forces acting on atoms (cartesian axes, Ry/au):

     atom    1 type  1   force =     0.00000000    0.00000000    0.00000000

     Total force =     0.000000     Total SCF correction =     0.000000


     Computing stress (Cartesian axis) and pressure

          total   stress  (Ry/bohr**3)                   (kbar)     P=      787.81
   0.00812634  -0.00000000   0.00000000         1195.43       -0.00        0.00
  -0.00000000   0.00812634  -0.00000000           -0.00     1195.43       -0.00
   0.00000000   0.00000000  -0.00018634            0.00        0.00      -27.41

     Energy error            =      2.5E-02 Ry
     Gradient error          =      0.0E+00 Ry/Bohr
     Cell gradient error     =      1.2E+03 kbar

     number of scf cycles    =   4
     number of bfgs steps    =   3

     enthalpy           old  =    -329.0692051437 Ry
     enthalpy           new  =    -329.0439546147 Ry

     CASE: enthalpy          _new > enthalpy          _old

     new trust radius        =       0.2118886944 bohr
ibrav =      4
 celldm(1) =      4.31253084
 celldm(3) =      2.03907867
Input lattice vectors:
     0.75658436     0.00000000     0.00000000
    -0.37829218     0.65522127     0.00000000
     0.00000000     0.00000000     1.54273503
New lattice vectors in INITIAL alat:
     0.75658436     0.00000000     0.00000000
    -0.37829218     0.65522127     0.00000000
     0.00000000     0.00000000     1.54273503
New lattice vectors in NEW alat (for information only):
     1.00000000     0.00000000     0.00000000
    -0.50000000     0.86602540     0.00000000
     0.00000000     0.00000000     2.03907867
Discrepancy in bohr =     0.000000    0.000000    0.000000

Atomic positions rescaled with new alat:
Fe            0.0000000000        0.0000000000        0.0000000000
     new conv_thr            =            1.0E-10 Ry

     new unit-cell volume =    141.63196 a.u.^3 (    20.98769 Ang^3 )
     density =      4.41844 g/cm^3

CELL_PARAMETERS (alat=  5.70000000)
   0.756584358   0.000000000   0.000000000
  -0.378292179   0.655221274   0.000000000
   0.000000000   0.000000000   1.542735029

ATOMIC_POSITIONS (alat)
Fe            0.0000000000        0.0000000000        0.0000000000



     Writing config-only to output data dir ./fe.save/
     NEW-OLD atomic charge density approx. for the potential

     Check: negative core charge=   -0.000059
     extrapolated charge   20.40053, renormalised to   16.00000

     total cpu time spent up to now is       80.9 secs

     Self-consistent Calculation

     iteration #  1     ecut=    30.00 Ry     beta= 0.70
     Davidson diagonalization with overlap
     c_bands:  5 eigenvalues not converged
     c_bands:  5 eigenvalues not converged
     c_bands:  5 eigenvalues not converged
     c_bands:  1 eigenvalues not converged
     ethr =  1.00E-06,  avg # of iterations = 28.8

     negative rho (up, down):  6.471E-05 0.000E+00

     total cpu time spent up to now is       82.6 secs

     total energy              =    -257.62356385 Ry
     estimated scf accuracy    <      63.78490110 Ry

     iteration #  2     ecut=    30.00 Ry     beta= 0.70
     Davidson diagonalization with overlap
     ethr =  1.00E-02,  avg # of iterations =  8.4

     total cpu time spent up to now is       83.5 secs

     total energy              =    -341.42794693 Ry
     estimated scf accuracy    <      76.56274650 Ry

     iteration #  3     ecut=    30.00 Ry     beta= 0.70
     Davidson diagonalization with overlap
     ethr =  1.00E-02,  avg # of iterations =  3.3

     total cpu time spent up to now is       84.2 secs

     total energy              =    -332.36174605 Ry
     estimated scf accuracy    <      23.42153440 Ry

     iteration #  4     ecut=    30.00 Ry     beta= 0.70
     Davidson diagonalization with overlap
     ethr =  1.00E-02,  avg # of iterations =  2.8

     total cpu time spent up to now is       84.9 secs

     total energy              =    -331.98801972 Ry
     estimated scf accuracy    <       6.89499054 Ry

     iteration #  5     ecut=    30.00 Ry     beta= 0.70
     Davidson diagonalization with overlap
     ethr =  1.00E-02,  avg # of iterations =  1.0

     total cpu time spent up to now is       85.5 secs

     total energy              =    -329.41166585 Ry
     estimated scf accuracy    <       5.48339831 Ry

     iteration #  6     ecut=    30.00 Ry     beta= 0.70
     Davidson diagonalization with overlap
     ethr =  1.00E-02,  avg # of iterations =  2.2

     total cpu time spent up to now is       86.2 secs

     total energy              =    -329.67024046 Ry
     estimated scf accuracy    <       1.31901239 Ry

     iteration #  7     ecut=    30.00 Ry     beta= 0.70
     Davidson diagonalization with overlap
     ethr =  8.24E-03,  avg # of iterations =  1.0

     total cpu time spent up to now is       86.9 secs

     total energy              =    -328.90079428 Ry
     estimated scf accuracy    <       1.52825956 Ry

     iteration #  8     ecut=    30.00 Ry     beta= 0.70
     Davidson diagonalization with overlap
     ethr =  8.24E-03,  avg # of iterations =  2.2

     total cpu time spent up to now is       87.5 secs

     total energy              =    -329.15972457 Ry
     estimated scf accuracy    <       0.07561220 Ry

     iteration #  9     ecut=    30.00 Ry     beta= 0.70
     Davidson diagonalization with overlap
     ethr =  4.73E-04,  avg # of iterations =  2.2

     total cpu time spent up to now is       88.2 secs

     total energy              =    -329.05317619 Ry
     estimated scf accuracy    <       0.55514602 Ry

     iteration # 10     ecut=    30.00 Ry     beta= 0.70
     Davidson diagonalization with overlap
     ethr =  4.73E-04,  avg # of iterations =  2.2

     negative rho (up, down):  7.210E-04 0.000E+00

     total cpu time spent up to now is       88.9 secs

     total energy              =    -329.18252117 Ry
     estimated scf accuracy    <       0.04011035 Ry

     iteration # 11     ecut=    30.00 Ry     beta= 0.70
     Davidson diagonalization with overlap
     ethr =  2.51E-04,  avg # of iterations =  4.3

     negative rho (up, down):  1.293E-03 0.000E+00

     total cpu time spent up to now is       89.6 secs

     total energy              =    -329.41594794 Ry
     estimated scf accuracy    <       1.28754380 Ry

     iteration # 12     ecut=    30.00 Ry     beta= 0.70
     Davidson diagonalization with overlap
     ethr =  2.51E-04,  avg # of iterations =  1.8

     negative rho (up, down):  1.613E-02 0.000E+00

     total cpu time spent up to now is       90.3 secs

     total energy              =    -329.20521754 Ry
     estimated scf accuracy    <       1.68811625 Ry

     iteration # 13     ecut=    30.00 Ry     beta= 0.70
     Davidson diagonalization with overlap
     ethr =  2.51E-04,  avg # of iterations =  2.1

     negative rho (up, down):  4.288E-03 0.000E+00

     total cpu time spent up to now is       91.0 secs

     total energy              =    -329.23464124 Ry
     estimated scf accuracy    <       0.59262041 Ry

     iteration # 14     ecut=    30.00 Ry     beta= 0.70
     Davidson diagonalization with overlap
     ethr =  2.51E-04,  avg # of iterations =  1.1

     negative rho (up, down):  3.161E-04 0.000E+00

     total cpu time spent up to now is       91.6 secs

     total energy              =    -329.09666517 Ry
     estimated scf accuracy    <       0.56247404 Ry

     iteration # 15     ecut=    30.00 Ry     beta= 0.70
     Davidson diagonalization with overlap
     ethr =  2.51E-04,  avg # of iterations =  2.2

     total cpu time spent up to now is       92.3 secs

     total energy              =    -329.13790078 Ry
     estimated scf accuracy    <       0.04630606 Ry

     iteration # 16     ecut=    30.00 Ry     beta= 0.70
     Davidson diagonalization with overlap
     ethr =  2.51E-04,  avg # of iterations =  1.0

     total cpu time spent up to now is       93.0 secs

     total energy              =    -329.12261520 Ry
     estimated scf accuracy    <       0.03543832 Ry

     iteration # 17     ecut=    30.00 Ry     beta= 0.70
     Davidson diagonalization with overlap
     ethr =  2.21E-04,  avg # of iterations =  1.9

     total cpu time spent up to now is       93.6 secs

     total energy              =    -329.12816384 Ry
     estimated scf accuracy    <       0.00017513 Ry

     iteration # 18     ecut=    30.00 Ry     beta= 0.70
     Davidson diagonalization with overlap
     ethr =  1.09E-06,  avg # of iterations =  4.2

     total cpu time spent up to now is       94.3 secs

     total energy              =    -329.12823994 Ry
     estimated scf accuracy    <       0.00025069 Ry

     iteration # 19     ecut=    30.00 Ry     beta= 0.70
     Davidson diagonalization with overlap
     ethr =  1.09E-06,  avg # of iterations =  2.6

     total cpu time spent up to now is       95.0 secs

     total energy              =    -329.12831216 Ry
     estimated scf accuracy    <       0.00029587 Ry

     iteration # 20     ecut=    30.00 Ry     beta= 0.70
     Davidson diagonalization with overlap
     ethr =  1.09E-06,  avg # of iterations =  1.0

     total cpu time spent up to now is       95.6 secs

     total energy              =    -329.12826165 Ry
     estimated scf accuracy    <       0.00031621 Ry

     iteration # 21     ecut=    30.00 Ry     beta= 0.70
     Davidson diagonalization with overlap
     ethr =  1.09E-06,  avg # of iterations =  2.0

     total cpu time spent up to now is       96.3 secs

     total energy              =    -329.12831521 Ry
     estimated scf accuracy    <       0.00001091 Ry

     iteration # 22     ecut=    30.00 Ry     beta= 0.70
     Davidson diagonalization with overlap
     ethr =  6.82E-08,  avg # of iterations =  3.2

     total cpu time spent up to now is       97.0 secs

     total energy              =    -329.12832020 Ry
     estimated scf accuracy    <       0.00001168 Ry

     iteration # 23     ecut=    30.00 Ry     beta= 0.70
     Davidson diagonalization with overlap
     ethr =  6.82E-08,  avg # of iterations =  1.1

     total cpu time spent up to now is       97.7 secs

     total energy              =    -329.12831653 Ry
     estimated scf accuracy    <       0.00002667 Ry

     iteration # 24     ecut=    30.00 Ry     beta= 0.70
     Davidson diagonalization with overlap
     ethr =  6.82E-08,  avg # of iterations =  1.2

     total cpu time spent up to now is       98.3 secs

     total energy              =    -329.12831388 Ry
     estimated scf accuracy    <       0.00000939 Ry

     iteration # 25     ecut=    30.00 Ry     beta= 0.70
     Davidson diagonalization with overlap
     ethr =  5.87E-08,  avg # of iterations =  2.0

     total cpu time spent up to now is       99.0 secs

     total energy              =    -329.12831519 Ry
     estimated scf accuracy    <       0.00000004 Ry

     iteration # 26     ecut=    30.00 Ry     beta= 0.70
     Davidson diagonalization with overlap
     ethr =  2.81E-10,  avg # of iterations =  5.2

     total cpu time spent up to now is       99.7 secs

     total energy              =    -329.12831529 Ry
     estimated scf accuracy    <       0.00000005 Ry

     iteration # 27     ecut=    30.00 Ry     beta= 0.70
     Davidson diagonalization with overlap
     ethr =  2.81E-10,  avg # of iterations =  2.0

     total cpu time spent up to now is      100.4 secs

     total energy              =    -329.12831529 Ry
     estimated scf accuracy    <          2.2E-09 Ry

     iteration # 28     ecut=    30.00 Ry     beta= 0.70
     Davidson diagonalization with overlap
     ethr =  1.38E-11,  avg # of iterations =  4.1

     total cpu time spent up to now is      101.1 secs

     total energy              =    -329.12831530 Ry
     estimated scf accuracy    <          1.3E-09 Ry

     iteration # 29     ecut=    30.00 Ry     beta= 0.70
     Davidson diagonalization with overlap
     ethr =  8.29E-12,  avg # of iterations =  2.0

     total cpu time spent up to now is      101.7 secs

     End of self-consistent calculation

          k = 0.0000 0.0000 0.0000 (   835 PWs)   bands (ev):

   -79.5899 -45.5545 -45.1853 -45.1853   1.3676   5.1902   6.1920   6.1920
     8.2478   8.2478   9.4148  14.4789

          k = 0.0000 0.0000 0.1620 (   811 PWs)   bands (ev):

   -79.5894 -45.5473 -45.1838 -45.1838   1.4663   5.4187   6.1921   6.1921
     8.2174   8.2475   8.2475  16.5399

          k = 0.0000 0.0000-0.3241 (   798 PWs)   bands (ev):

   -79.5893 -45.5413 -45.1827 -45.1827   1.5681   5.9114   6.1921   6.1921
     7.0234   8.2472   8.2472  19.4379

          k = 0.0000 0.3816 0.0000 (   827 PWs)   bands (ev):

   -79.5062 -45.6116 -45.4844 -45.2830   3.5028   5.8433   5.8492   6.2868
     7.6320   7.9537  13.5151  16.2123

          k = 0.0000 0.3816 0.1620 (   828 PWs)   bands (ev):

   -79.5063 -45.6121 -45.4849 -45.2828   3.5501   5.6823   5.9315   6.5235
     7.6321   7.9530  11.8756  18.8389

          k = 0.0000 0.3816-0.3241 (   820 PWs)   bands (ev):

   -79.5061 -45.6124 -45.4825 -45.2815   3.6036   5.6145   5.9469   6.7922
     7.6324   7.9523  10.8605  22.5371

          k = 0.0000-0.7631 0.0000 (   832 PWs)   bands (ev):

   -79.4218 -46.0284 -45.4188 -45.3806   3.2320   4.7703   7.4317   7.6686
     9.3250  10.9215  16.5759  19.2157

          k = 0.0000-0.7631 0.1620 (   836 PWs)   bands (ev):

   -79.4219 -46.0294 -45.4207 -45.3805   3.2347   4.7432   7.4803   7.6675
     9.3250  11.0483  16.5845  18.4698

          k = 0.0000-0.7631-0.3241 (   828 PWs)   bands (ev):

   -79.4217 -46.0295 -45.4204 -45.3789   3.2376   4.7167   7.5305   7.6664
     9.3250  11.2067  17.9116  18.9041

          k = 0.3304 0.5723 0.0000 (   833 PWs)   bands (ev):

   -79.4219 -45.8691 -45.5462 -45.4189   4.8491   5.3219   5.9303   6.8951
     7.4179  12.0517  18.5761  19.9605

          k = 0.3304 0.5723 0.1620 (   835 PWs)   bands (ev):

   -79.4220 -45.8694 -45.5457 -45.4185   4.8518   5.2884   5.9429   6.8891
     7.4912  12.2427  16.6173  21.6234

          k = 0.3304 0.5723-0.3241 (   842 PWs)   bands (ev):

   -79.4221 -45.8698 -45.5462 -45.4228   4.8531   5.2567   5.9530   6.8831
     7.5650  12.5073  15.5090  22.0113

     the Fermi energy is     7.3818 ev

!    total energy              =    -329.12831530 Ry

     total all-electron energy =     -2545.424851 Ry
     estimated scf accuracy    <          4.4E-11 Ry
     smearing contrib. (-TS)   =      -0.00941703 Ry
     internal energy E=F+TS    =    -329.11889827 Ry

     The total energy is F=E-TS. E is the sum of the following terms:
     one-electron contribution =    -237.42627645 Ry
     hartree contribution      =     122.84114065 Ry
     xc contribution           =     -34.62995814 Ry
     ewald contribution        =    -103.75064461 Ry
     one-center paw contrib.   =     -76.15315972 Ry

     convergence has been achieved in  29 iterations

     Forces acting on atoms (cartesian axes, Ry/au):

     atom    1 type  1   force =     0.00000000    0.00000000    0.00000000

     Total force =     0.000000     Total SCF correction =     0.000000


     Computing stress (Cartesian axis) and pressure

          total   stress  (Ry/bohr**3)                   (kbar)     P=      -54.88
  -0.00007107  -0.00000000   0.00000000          -10.45       -0.00        0.00
  -0.00000000  -0.00007107   0.00000000           -0.00      -10.45        0.00
   0.00000000   0.00000000  -0.00097703            0.00        0.00     -143.73

     Energy error            =      5.9E-02 Ry
     Gradient error          =      0.0E+00 Ry/Bohr
     Cell gradient error     =      1.4E+02 kbar

     number of scf cycles    =   5
     number of bfgs steps    =   3

     enthalpy           old  =    -329.0692051437 Ry
     enthalpy           new  =    -329.1283152973 Ry

     CASE: enthalpy          _new < enthalpy          _old

     new trust radius        =       0.0529316480 bohr
ibrav =      4
 celldm(1) =      4.28240327
 celldm(3) =      2.00775901
Input lattice vectors:
     0.75129882    -0.00000000     0.00000000
    -0.37564941     0.65064386     0.00000000
     0.00000000    -0.00000000     1.50842697
New lattice vectors in INITIAL alat:
     0.75129882     0.00000000     0.00000000
    -0.37564941     0.65064386     0.00000000
     0.00000000     0.00000000     1.50842697
New lattice vectors in NEW alat (for information only):
     1.00000000     0.00000000     0.00000000
    -0.50000000     0.86602540     0.00000000
     0.00000000     0.00000000     2.00775901
Discrepancy in bohr =     0.000000    0.000000    0.000000

Atomic positions rescaled with new alat:
Fe            0.0000000000        0.0000000000        0.0000000000
     new conv_thr            =            1.0E-10 Ry

     new unit-cell volume =    136.55415 a.u.^3 (    20.23524 Ang^3 )
     density =      4.58274 g/cm^3

CELL_PARAMETERS (alat=  5.70000000)
   0.751298819   0.000000000   0.000000000
  -0.375649410   0.650643863   0.000000000
   0.000000000   0.000000000   1.508426971

ATOMIC_POSITIONS (alat)
Fe            0.0000000000        0.0000000000        0.0000000000



     Writing config-only to output data dir ./fe.save/
     NEW-OLD atomic charge density approx. for the potential

     Check: negative core charge=   -0.000058
     extrapolated charge   15.40505, renormalised to   16.00000

     total cpu time spent up to now is      106.6 secs

     Self-consistent Calculation

     iteration #  1     ecut=    30.00 Ry     beta= 0.70
     Davidson diagonalization with overlap
     ethr =  1.00E-06,  avg # of iterations =  9.7

     total cpu time spent up to now is      107.5 secs

     total energy              =    -327.26494788 Ry
     estimated scf accuracy    <       1.82816407 Ry

     iteration #  2     ecut=    30.00 Ry     beta= 0.70
     Davidson diagonalization with overlap
     ethr =  1.00E-02,  avg # of iterations =  3.7

     total cpu time spent up to now is      108.2 secs

     total energy              =    -328.03598247 Ry
     estimated scf accuracy    <      17.67460437 Ry

     iteration #  3     ecut=    30.00 Ry     beta= 0.70
     Davidson diagonalization with overlap
     ethr =  1.00E-02,  avg # of iterations =  2.8

     total cpu time spent up to now is      108.9 secs

     total energy              =    -329.17469025 Ry
     estimated scf accuracy    <       1.46710943 Ry

     iteration #  4     ecut=    30.00 Ry     beta= 0.70
     Davidson diagonalization with overlap
     ethr =  9.17E-03,  avg # of iterations =  1.0

     total cpu time spent up to now is      109.6 secs

     total energy              =    -329.15898817 Ry
     estimated scf accuracy    <       0.58358862 Ry

     iteration #  5     ecut=    30.00 Ry     beta= 0.70
     Davidson diagonalization with overlap
     ethr =  3.65E-03,  avg # of iterations =  1.0

     total cpu time spent up to now is      110.2 secs

     total energy              =    -329.14433903 Ry
     estimated scf accuracy    <       0.30779165 Ry

     iteration #  6     ecut=    30.00 Ry     beta= 0.70
     Davidson diagonalization with overlap
     ethr =  1.92E-03,  avg # of iterations =  1.0

     total cpu time spent up to now is      110.9 secs

     total energy              =    -329.13574951 Ry
     estimated scf accuracy    <       0.16118758 Ry

     iteration #  7     ecut=    30.00 Ry     beta= 0.70
     Davidson diagonalization with overlap
     ethr =  1.01E-03,  avg # of iterations =  1.0

     total cpu time spent up to now is      111.5 secs

     total energy              =    -329.13642064 Ry
     estimated scf accuracy    <       0.08255138 Ry

     iteration #  8     ecut=    30.00 Ry     beta= 0.70
     Davidson diagonalization with overlap
     ethr =  5.16E-04,  avg # of iterations =  1.0

     total cpu time spent up to now is      112.2 secs

     total energy              =    -329.13865626 Ry
     estimated scf accuracy    <       0.05865337 Ry

     iteration #  9     ecut=    30.00 Ry     beta= 0.70
     Davidson diagonalization with overlap
     ethr =  3.67E-04,  avg # of iterations =  1.0

     total cpu time spent up to now is      112.8 secs

     total energy              =    -329.13319233 Ry
     estimated scf accuracy    <       0.05947466 Ry

     iteration # 10     ecut=    30.00 Ry     beta= 0.70
     Davidson diagonalization with overlap
     ethr =  3.67E-04,  avg # of iterations =  1.0

     total cpu time spent up to now is      113.5 secs

     total energy              =    -329.12519594 Ry
     estimated scf accuracy    <       0.02882585 Ry

     iteration # 11     ecut=    30.00 Ry     beta= 0.70
     Davidson diagonalization with overlap
     ethr =  1.80E-04,  avg # of iterations =  2.0

     total cpu time spent up to now is      114.1 secs

     total energy              =    -329.13012639 Ry
     estimated scf accuracy    <       0.00007503 Ry

     iteration # 12     ecut=    30.00 Ry     beta= 0.70
     Davidson diagonalization with overlap
     ethr =  4.69E-07,  avg # of iterations =  5.9

     total cpu time spent up to now is      114.8 secs

     total energy              =    -329.13068232 Ry
     estimated scf accuracy    <       0.00009319 Ry

     iteration # 13     ecut=    30.00 Ry     beta= 0.70
     Davidson diagonalization with overlap
     ethr =  4.69E-07,  avg # of iterations =  2.0

     total cpu time spent up to now is      115.5 secs

     total energy              =    -329.13070081 Ry
     estimated scf accuracy    <       0.00006482 Ry

     iteration # 14     ecut=    30.00 Ry     beta= 0.70
     Davidson diagonalization with overlap
     ethr =  4.05E-07,  avg # of iterations =  1.2

     total cpu time spent up to now is      116.1 secs

     total energy              =    -329.13072252 Ry
     estimated scf accuracy    <       0.00013513 Ry

     iteration # 15     ecut=    30.00 Ry     beta= 0.70
     Davidson diagonalization with overlap
     ethr =  4.05E-07,  avg # of iterations =  2.0

     total cpu time spent up to now is      116.8 secs

     total energy              =    -329.13073848 Ry
     estimated scf accuracy    <       0.00017256 Ry

     iteration # 16     ecut=    30.00 Ry     beta= 0.70
     Davidson diagonalization with overlap
     ethr =  4.05E-07,  avg # of iterations =  5.1

     total cpu time spent up to now is      117.5 secs

     total energy              =    -329.13115987 Ry
     estimated scf accuracy    <       0.00128457 Ry

     iteration # 17     ecut=    30.00 Ry     beta= 0.70
     Davidson diagonalization with overlap
     ethr =  4.05E-07,  avg # of iterations =  1.5

     total cpu time spent up to now is      118.2 secs

     total energy              =    -329.13065445 Ry
     estimated scf accuracy    <       0.00172706 Ry

     iteration # 18     ecut=    30.00 Ry     beta= 0.70
     Davidson diagonalization with overlap
     ethr =  4.05E-07,  avg # of iterations =  4.2

     total cpu time spent up to now is      118.9 secs

     total energy              =    -329.13059457 Ry
     estimated scf accuracy    <       0.00034301 Ry

     iteration # 19     ecut=    30.00 Ry     beta= 0.70
     Davidson diagonalization with overlap
     ethr =  4.05E-07,  avg # of iterations =  4.0

     total cpu time spent up to now is      119.6 secs

     total energy              =    -329.13064998 Ry
     estimated scf accuracy    <       0.00014490 Ry

     iteration # 20     ecut=    30.00 Ry     beta= 0.70
     Davidson diagonalization with overlap
     ethr =  4.05E-07,  avg # of iterations =  3.5

     total cpu time spent up to now is      120.3 secs

     total energy              =    -329.13068209 Ry
     estimated scf accuracy    <       0.00004042 Ry

     iteration # 21     ecut=    30.00 Ry     beta= 0.70
     Davidson diagonalization with overlap
     ethr =  2.53E-07,  avg # of iterations =  2.0

     total cpu time spent up to now is      120.9 secs

     total energy              =    -329.13068580 Ry
     estimated scf accuracy    <       0.00000102 Ry

     iteration # 22     ecut=    30.00 Ry     beta= 0.70
     Davidson diagonalization with overlap
     ethr =  6.41E-09,  avg # of iterations =  4.2

     total cpu time spent up to now is      121.6 secs

     total energy              =    -329.13068266 Ry
     estimated scf accuracy    <       0.00000005 Ry

     iteration # 23     ecut=    30.00 Ry     beta= 0.70
     Davidson diagonalization with overlap
     ethr =  3.40E-10,  avg # of iterations =  2.4

     total cpu time spent up to now is      122.3 secs

     total energy              =    -329.13068263 Ry
     estimated scf accuracy    <       0.00000006 Ry

     iteration # 24     ecut=    30.00 Ry     beta= 0.70
     Davidson diagonalization with overlap
     ethr =  3.40E-10,  avg # of iterations =  2.0

     total cpu time spent up to now is      122.9 secs

     total energy              =    -329.13068263 Ry
     estimated scf accuracy    <          6.9E-09 Ry

     iteration # 25     ecut=    30.00 Ry     beta= 0.70
     Davidson diagonalization with overlap
     ethr =  4.28E-11,  avg # of iterations =  3.3

     total cpu time spent up to now is      123.6 secs

     total energy              =    -329.13068264 Ry
     estimated scf accuracy    <          1.7E-10 Ry

     iteration # 26     ecut=    30.00 Ry     beta= 0.70
     Davidson diagonalization with overlap
     ethr =  1.03E-12,  avg # of iterations =  4.8

     total cpu time spent up to now is      124.3 secs

     End of self-consistent calculation

          k = 0.0000 0.0000 0.0000 (   835 PWs)   bands (ev):

   -79.1734 -45.1298 -44.7368 -44.7368   1.7377   5.5411   6.6026   6.6026
     8.7245   8.7245   9.9638  15.1847

          k = 0.0000 0.0000 0.1657 (   811 PWs)   bands (ev):

   -79.1729 -45.1262 -44.7360 -44.7360   1.8477   5.7861   6.6027   6.6027
     8.6632   8.7241   8.7241  17.3451

          k = 0.0000 0.0000-0.3315 (   798 PWs)   bands (ev):

   -79.1727 -45.1229 -44.7354 -44.7354   1.9620   6.3538   6.6028   6.6028
     7.3387   8.7236   8.7236  20.3443

          k = 0.0000 0.3842 0.0000 (   827 PWs)   bands (ev):

   -79.0827 -45.1928 -45.0584 -44.8413   3.8829   6.2481   6.2566   6.6812
     8.0850   8.4211  14.1363  16.9049

          k = 0.0000 0.3842 0.1657 (   828 PWs)   bands (ev):

   -79.0827 -45.1931 -45.0588 -44.8412   3.9369   6.0631   6.3535   6.9498
     8.0851   8.4201  12.3829  19.6660

          k = 0.0000 0.3842-0.3315 (   820 PWs)   bands (ev):

   -79.0825 -45.1932 -45.0576 -44.8405   3.9951   5.9862   6.3691   7.2597
     8.0853   8.4192  11.2859  23.5125

          k = 0.0000-0.7685 0.0000 (   832 PWs)   bands (ev):

   -78.9911 -45.6374 -44.9891 -44.9451   3.5687   5.1436   7.8767   8.1271
     9.8295  11.4021  17.1485  19.8813

          k = 0.0000-0.7685 0.1657 (   836 PWs)   bands (ev):

   -78.9911 -45.6379 -44.9903 -44.9451   3.5720   5.1114   7.9343   8.1257
     9.8295  11.5586  17.1083  19.1546

          k = 0.0000-0.7685-0.3315 (   828 PWs)   bands (ev):

   -78.9910 -45.6379 -44.9902 -44.9443   3.5754   5.0799   7.9938   8.1243
     9.8295  11.7431  17.0477  18.6373

          k = 0.3328 0.5764 0.0000 (   833 PWs)   bands (ev):

   -78.9912 -45.4673 -45.1224 -44.9893   5.2260   5.7106   6.3475   7.3286
     7.8591  12.5763  19.2749  20.6317

          k = 0.3328 0.5764 0.1657 (   835 PWs)   bands (ev):

   -78.9912 -45.4674 -45.1221 -44.9891   5.2290   5.6708   6.3628   7.3212
     7.9453  12.7885  17.1749  22.2741

          k = 0.3328 0.5764-0.3315 (   842 PWs)   bands (ev):

   -78.9914 -45.4676 -45.1223 -44.9916   5.2311   5.6338   6.3751   7.3138
     8.0321  13.0948  15.9819  22.7232

     the Fermi energy is     7.8353 ev

!    total energy              =    -329.13068264 Ry

     total all-electron energy =     -2545.427218 Ry
     estimated scf accuracy    <          1.2E-11 Ry
     smearing contrib. (-TS)   =      -0.00931898 Ry
     internal energy E=F+TS    =    -329.12136365 Ry

     The total energy is F=E-TS. E is the sum of the following terms:
     one-electron contribution =    -231.92000036 Ry
     hartree contribution      =     120.33966577 Ry
     xc contribution           =     -34.64220733 Ry
     ewald contribution        =    -106.74443611 Ry
     one-center paw contrib.   =     -76.15438562 Ry

     convergence has been achieved in  26 iterations

     Forces acting on atoms (cartesian axes, Ry/au):

     atom    1 type  1   force =     0.00000000    0.00000000    0.00000000

     Total force =     0.000000     Total SCF correction =     0.000000


     Computing stress (Cartesian axis) and pressure

[...]

     iteration # 12     ecut=    30.00 Ry     beta= 0.70
     Davidson diagonalization with overlap
     ethr =  2.26E-05,  avg # of iterations =  1.4

     total cpu time spent up to now is      201.4 secs

     total energy              =    -329.15068151 Ry
     estimated scf accuracy    <       0.00111522 Ry

     iteration # 13     ecut=    30.00 Ry     beta= 0.70
     Davidson diagonalization with overlap
     ethr =  6.97E-06,  avg # of iterations =  1.8

     total cpu time spent up to now is      202.1 secs

     total energy              =    -329.15063783 Ry
     estimated scf accuracy    <       0.00042998 Ry

     iteration # 14     ecut=    30.00 Ry     beta= 0.70
     Davidson diagonalization with overlap
     ethr =  2.69E-06,  avg # of iterations =  2.2

     total cpu time spent up to now is      202.7 secs

     total energy              =    -329.15068453 Ry
     estimated scf accuracy    <       0.00003660 Ry

     iteration # 15     ecut=    30.00 Ry     beta= 0.70
     Davidson diagonalization with overlap
     ethr =  2.29E-07,  avg # of iterations =  4.2

     total cpu time spent up to now is      203.4 secs

     total energy              =    -329.15070568 Ry
     estimated scf accuracy    <       0.00000429 Ry

     iteration # 16     ecut=    30.00 Ry     beta= 0.70
     Davidson diagonalization with overlap
     ethr =  2.68E-08,  avg # of iterations =  2.3

     total cpu time spent up to now is      204.1 secs

     total energy              =    -329.15070572 Ry
     estimated scf accuracy    <       0.00000193 Ry

     iteration # 17     ecut=    30.00 Ry     beta= 0.70
     Davidson diagonalization with overlap
     ethr =  1.21E-08,  avg # of iterations =  1.4

     total cpu time spent up to now is      204.7 secs

     total energy              =    -329.15070583 Ry
     estimated scf accuracy    <       0.00000019 Ry

     iteration # 18     ecut=    30.00 Ry     beta= 0.70
     Davidson diagonalization with overlap
     ethr =  1.18E-09,  avg # of iterations =  2.9

     total cpu time spent up to now is      205.4 secs

     total energy              =    -329.15070585 Ry
     estimated scf accuracy    <       0.00000001 Ry

     iteration # 19     ecut=    30.00 Ry     beta= 0.70
     Davidson diagonalization with overlap
     ethr =  8.28E-11,  avg # of iterations =  3.9

     total cpu time spent up to now is      206.1 secs

     total energy              =    -329.15070586 Ry
     estimated scf accuracy    <          3.1E-09 Ry

     iteration # 20     ecut=    30.00 Ry     beta= 0.70
     Davidson diagonalization with overlap
     ethr =  1.94E-11,  avg # of iterations =  1.8

     total cpu time spent up to now is      206.7 secs

     total energy              =    -329.15070586 Ry
     estimated scf accuracy    <          2.4E-10 Ry

     iteration # 21     ecut=    30.00 Ry     beta= 0.70
     Davidson diagonalization with overlap
     ethr =  1.48E-12,  avg # of iterations =  3.3

     total cpu time spent up to now is      207.4 secs

     End of self-consistent calculation

          k = 0.0000 0.0000 0.0000 (   835 PWs)   bands (ev):

   -75.4475 -41.4358 -41.1034 -41.1034   4.9277   8.7544  10.3282  10.3282
    12.2800  12.2800  17.3129  23.1899

          k = 0.0000 0.0000 0.2185 (   811 PWs)   bands (ev):

   -75.4472 -41.4382 -41.1031 -41.1031   5.4577   8.9947  10.3329  10.3329
    12.2613  12.2613  14.1604  27.5834

          k = 0.0000 0.0000-0.4369 (   798 PWs)   bands (ev):

   -75.4470 -41.4407 -41.1031 -41.1031   6.0968   9.8187  10.3375  10.3375
    11.3666  12.2427  12.2427  33.2117

          k = 0.0000 0.3759 0.0000 (   827 PWs)   bands (ev):

   -75.3773 -41.4759 -41.3814 -41.1897   7.1994   9.4320  10.1496  10.3659
    11.6863  12.0121  21.1941  24.2171

          k = 0.0000 0.3759 0.2185 (   828 PWs)   bands (ev):

   -75.3772 -41.4758 -41.3843 -41.1896   7.5572   9.3388  10.1247  10.8837
    11.6898  11.9844  17.2174  29.1722

          k = 0.0000 0.3759-0.4369 (   820 PWs)   bands (ev):

   -75.3771 -41.4755 -41.3867 -41.1893   7.9534   9.1950  10.1221  11.6937
    11.9566  12.0766  14.3091  31.5444

          k = 0.0000-0.7517 0.0000 (   832 PWs)   bands (ev):

   -75.3064 -41.8400 -41.3276 -41.2752   7.4638   9.2306  11.0543  11.7519
    13.2843  13.9652  19.5445  26.9821

          k = 0.0000-0.7517 0.2185 (   836 PWs)   bands (ev):

   -75.3064 -41.8396 -41.3300 -41.2748   7.5091   8.9171  11.4443  11.7152
    13.2847  14.7906  19.3503  24.4586

          k = 0.0000-0.7517-0.4369 (   828 PWs)   bands (ev):

   -75.3062 -41.8392 -41.3321 -41.2746   7.5523   8.6561  11.6789  11.9094
    13.2852  15.7280  19.0243  22.5813

          k = 0.3255 0.5638 0.0000 (   833 PWs)   bands (ev):

   -75.3066 -41.7008 -41.4193 -41.3276   9.0001   9.7430   9.8614  10.9649
    11.0792  15.3643  24.0049  24.3075

          k = 0.3255 0.5638 0.2185 (   835 PWs)   bands (ev):

   -75.3066 -41.7004 -41.4191 -41.3298   9.0398   9.3556  10.0744  10.9818
    11.4746  15.8488  21.4806  24.7663

          k = 0.3255 0.5638-0.4369 (   842 PWs)   bands (ev):

   -75.3065 -41.7002 -41.4190 -41.3324   9.0827   9.1549  10.1330  10.8826
    12.0029  17.0628  18.5745  26.5478

     the Fermi energy is    11.4810 ev

!    total energy              =    -329.15070586 Ry

     total all-electron energy =     -2545.447241 Ry
     estimated scf accuracy    <          3.0E-11 Ry
     smearing contrib. (-TS)   =      -0.00942959 Ry
     internal energy E=F+TS    =    -329.14127627 Ry

     The total energy is F=E-TS. E is the sum of the following terms:
     one-electron contribution =    -167.76385471 Ry
     hartree contribution      =      90.42241790 Ry
     xc contribution           =     -34.63149737 Ry
     ewald contribution        =    -141.01681189 Ry
     one-center paw contrib.   =     -76.15153020 Ry

     convergence has been achieved in  21 iterations

     Forces acting on atoms (cartesian axes, Ry/au):

     atom    1 type  1   force =     0.00000000    0.00000000    0.00000000

     Total force =     0.000000     Total SCF correction =     0.000000


     Computing stress (Cartesian axis) and pressure

          total   stress  (Ry/bohr**3)                   (kbar)     P=      -88.44
  -0.00022883   0.00000000   0.00000000          -33.66        0.00        0.00
   0.00000000  -0.00022883   0.00000000            0.00      -33.66        0.00
   0.00000000  -0.00000000  -0.00134585            0.00       -0.00     -197.98

     Energy error            =      1.2E-02 Ry
     Gradient error          =      0.0E+00 Ry/Bohr
     Cell gradient error     =      2.0E+02 kbar

     number of scf cycles    =  10
     number of bfgs steps    =   8

     enthalpy           old  =    -329.1387304328 Ry
     enthalpy           new  =    -329.1507058582 Ry

     CASE: enthalpy          _new < enthalpy          _old


     WARNING: bfgs curvature condition failed, Theta= 0.198
     new trust radius        =       0.3948103646 bohr
ibrav =      4
 celldm(1) =      4.42729682
 celldm(3) =      1.19380488
Input lattice vectors:
     0.77671874     0.00000000     0.00000000
    -0.38835937     0.67265816    -0.00000000
    -0.00000000     0.00000000     0.92725062
New lattice vectors in INITIAL alat:
     0.77671874     0.00000000     0.00000000
    -0.38835937     0.67265816     0.00000000
     0.00000000     0.00000000     0.92725062
New lattice vectors in NEW alat (for information only):
     1.00000000     0.00000000     0.00000000
    -0.50000000     0.86602540     0.00000000
     0.00000000     0.00000000     1.19380488
Discrepancy in bohr =     0.000000    0.000000    0.000000

Atomic positions rescaled with new alat:
Fe            0.0000000000        0.0000000000        0.0000000000
     new conv_thr            =            1.0E-10 Ry

     new unit-cell volume =     89.71806 a.u.^3 (    13.29485 Ang^3 )
     density =      6.97509 g/cm^3

CELL_PARAMETERS (alat=  5.70000000)
   0.776718740   0.000000000   0.000000000
  -0.388359370   0.672658160   0.000000000
   0.000000000   0.000000000   0.927250620

ATOMIC_POSITIONS (alat)
Fe            0.0000000000        0.0000000000        0.0000000000



     Writing config-only to output data dir ./fe.save/
     NEW-OLD atomic charge density approx. for the potential

     Check: negative core charge=   -0.000037
     extrapolated charge   12.69397, renormalised to   16.00000

     total cpu time spent up to now is      212.2 secs

     Self-consistent Calculation

     iteration #  1     ecut=    30.00 Ry     beta= 0.70
     Davidson diagonalization with overlap
     ethr =  1.00E-06,  avg # of iterations = 12.8

     total cpu time spent up to now is      213.3 secs

     total energy              =    -318.18725606 Ry
     estimated scf accuracy    <      10.60768172 Ry

     iteration #  2     ecut=    30.00 Ry     beta= 0.70
     Davidson diagonalization with overlap
     ethr =  1.00E-02,  avg # of iterations =  5.2

     total cpu time spent up to now is      214.0 secs

     total energy              =    -328.37476107 Ry
     estimated scf accuracy    <      35.59025536 Ry

     iteration #  3     ecut=    30.00 Ry     beta= 0.70
     Davidson diagonalization with overlap
     ethr =  1.00E-02,  avg # of iterations =  3.8

     total cpu time spent up to now is      214.7 secs

     total energy              =    -328.89468400 Ry
     estimated scf accuracy    <       6.21025739 Ry

     iteration #  4     ecut=    30.00 Ry     beta= 0.70
     Davidson diagonalization with overlap
     ethr =  1.00E-02,  avg # of iterations =  2.4

     total cpu time spent up to now is      215.4 secs

     total energy              =    -329.17562837 Ry
     estimated scf accuracy    <       1.10476042 Ry

     iteration #  5     ecut=    30.00 Ry     beta= 0.70
     Davidson diagonalization with overlap
     ethr =  6.90E-03,  avg # of iterations =  1.0

     total cpu time spent up to now is      216.0 secs

     total energy              =    -329.13037448 Ry
     estimated scf accuracy    <       0.46178627 Ry

     iteration #  6     ecut=    30.00 Ry     beta= 0.70
     Davidson diagonalization with overlap
     ethr =  2.89E-03,  avg # of iterations =  2.4

     total cpu time spent up to now is      216.7 secs

     total energy              =    -329.15597530 Ry
     estimated scf accuracy    <       0.08498649 Ry

     iteration #  7     ecut=    30.00 Ry     beta= 0.70
     Davidson diagonalization with overlap
     ethr =  5.31E-04,  avg # of iterations =  3.6

     total cpu time spent up to now is      217.4 secs

     total energy              =    -329.18686240 Ry
     estimated scf accuracy    <       0.00099572 Ry

     iteration #  8     ecut=    30.00 Ry     beta= 0.70
     Davidson diagonalization with overlap
     ethr =  6.22E-06,  avg # of iterations =  4.7

     total cpu time spent up to now is      218.1 secs

     total energy              =    -329.18638454 Ry
     estimated scf accuracy    <       0.00426958 Ry

     iteration #  9     ecut=    30.00 Ry     beta= 0.70
     Davidson diagonalization with overlap
     ethr =  6.22E-06,  avg # of iterations =  4.8

     total cpu time spent up to now is      218.8 secs

     total energy              =    -329.18613198 Ry
     estimated scf accuracy    <       0.00493125 Ry

     iteration # 10     ecut=    30.00 Ry     beta= 0.70
     Davidson diagonalization with overlap
     ethr =  6.22E-06,  avg # of iterations =  3.7

     total cpu time spent up to now is      219.5 secs

     total energy              =    -329.18684964 Ry
     estimated scf accuracy    <       0.00004088 Ry

     iteration # 11     ecut=    30.00 Ry     beta= 0.70
     Davidson diagonalization with overlap
     ethr =  2.55E-07,  avg # of iterations =  4.2

     total cpu time spent up to now is      220.2 secs

     total energy              =    -329.18687720 Ry
     estimated scf accuracy    <       0.00003227 Ry

     iteration # 12     ecut=    30.00 Ry     beta= 0.70
     Davidson diagonalization with overlap
     ethr =  2.02E-07,  avg # of iterations =  1.0

     total cpu time spent up to now is      220.8 secs

     total energy              =    -329.18686139 Ry
     estimated scf accuracy    <       0.00004089 Ry

     iteration # 13     ecut=    30.00 Ry     beta= 0.70
     Davidson diagonalization with overlap
     ethr =  2.02E-07,  avg # of iterations =  1.8

     total cpu time spent up to now is      221.4 secs

     total energy              =    -329.18684614 Ry
     estimated scf accuracy    <       0.00000432 Ry

     iteration # 14     ecut=    30.00 Ry     beta= 0.70
     Davidson diagonalization with overlap
     ethr =  2.70E-08,  avg # of iterations =  1.4

     total cpu time spent up to now is      222.1 secs

     total energy              =    -329.18684531 Ry
     estimated scf accuracy    <       0.00000294 Ry

     iteration # 15     ecut=    30.00 Ry     beta= 0.70
     Davidson diagonalization with overlap
     ethr =  1.83E-08,  avg # of iterations =  2.0

     total cpu time spent up to now is      222.7 secs

     total energy              =    -329.18684569 Ry
     estimated scf accuracy    <       0.00000015 Ry

     iteration # 16     ecut=    30.00 Ry     beta= 0.70
     Davidson diagonalization with overlap
     ethr =  9.15E-10,  avg # of iterations =  4.8

     total cpu time spent up to now is      223.5 secs

     total energy              =    -329.18684578 Ry
     estimated scf accuracy    <       0.00000002 Ry

     iteration # 17     ecut=    30.00 Ry     beta= 0.70
     Davidson diagonalization with overlap
     ethr =  1.02E-10,  avg # of iterations =  2.0

     total cpu time spent up to now is      224.1 secs

     total energy              =    -329.18684579 Ry
     estimated scf accuracy    <          1.9E-09 Ry

     iteration # 18     ecut=    30.00 Ry     beta= 0.70
     Davidson diagonalization with overlap
     ethr =  1.19E-11,  avg # of iterations =  3.8

     total cpu time spent up to now is      224.8 secs

     total energy              =    -329.18684579 Ry
     estimated scf accuracy    <          6.1E-09 Ry

     iteration # 19     ecut=    30.00 Ry     beta= 0.70
     Davidson diagonalization with overlap
     ethr =  1.19E-11,  avg # of iterations =  2.0

     total cpu time spent up to now is      225.5 secs

     End of self-consistent calculation

          k = 0.0000 0.0000 0.0000 (   835 PWs)   bands (ev):

   -71.9835 -37.9209 -37.6932 -37.6932   7.5038  11.9275  13.7446  13.7446
    15.7829  15.7829  26.4062  32.5997

          k = 0.0000 0.0000 0.2696 (   811 PWs)   bands (ev):

   -71.9801 -37.9607 -37.6908 -37.6908   8.5973  12.2120  13.7833  13.7833
    15.6339  15.6339  21.0800  39.4654

          k = 0.0000 0.0000-0.5392 (   798 PWs)   bands (ev):

   -71.9766 -38.0010 -37.6888 -37.6888  10.0840  12.8672  13.8224  13.8224
    15.4887  15.4887  17.0899  44.8840

          k = 0.0000 0.3717 0.0000 (   827 PWs)   bands (ev):

   -71.9220 -38.0298 -37.8749 -37.7715   9.7987  12.4822  13.3987  14.3752
    15.0518  15.5544  30.0319  30.9316

          k = 0.0000 0.3717 0.2696 (   828 PWs)   bands (ev):

   -71.9279 -38.0263 -37.9124 -37.7692  10.5980  12.4963  13.6018  14.7438
    15.0756  15.3702  23.5645  32.2335

          k = 0.0000 0.3717-0.5392 (   820 PWs)   bands (ev):

   -71.9156 -38.0227 -37.9496 -37.7667  11.7126  12.0228  13.7112  15.1100
    15.1816  17.6505  17.8827  34.4911

          k = 0.0000-0.7433 0.0000 (   832 PWs)   bands (ev):

   -71.8598 -38.3589 -37.8489 -37.8292  10.8370  13.3346  13.6013  15.3318
    16.2724  16.5978  22.5816  34.8146

          k = 0.0000-0.7433 0.2696 (   836 PWs)   bands (ev):

   -71.8568 -38.3542 -37.8638 -37.8461  11.0431  12.2160  14.5990  15.1028
    16.6048  18.2330  22.3528  30.0469

          k = 0.0000-0.7433-0.5392 (   828 PWs)   bands (ev):

   -71.8539 -38.3494 -37.8978 -37.8433  11.2310  11.5302  14.8845  15.9953
    16.6118  20.2483  21.8192  26.9047

          k = 0.3219 0.5575 0.0000 (   833 PWs)   bands (ev):

   -71.8601 -38.2330 -37.9791 -37.8289  12.3373  12.7761  13.6216  13.7709
    14.8036  18.3311  26.3832  26.9928

          k = 0.3219 0.5575 0.2696 (   835 PWs)   bands (ev):

   -71.8571 -38.2290 -37.9760 -37.8638  12.3940  12.4933  13.7074  14.4079
    14.7896  19.1069  26.4340  27.5927

          k = 0.3219 0.5575-0.5392 (   842 PWs)   bands (ev):

   -71.8541 -38.2248 -37.9730 -37.8984  12.0436  12.7046  13.7692  13.9801
    16.0783  21.5869  22.0051  30.9554

     the Fermi energy is    14.9145 ev

!    total energy              =    -329.18684579 Ry

     total all-electron energy =     -2545.483381 Ry
     estimated scf accuracy    <          1.5E-11 Ry
     smearing contrib. (-TS)   =      -0.00967760 Ry
     internal energy E=F+TS    =    -329.17716819 Ry

     The total energy is F=E-TS. E is the sum of the following terms:
     one-electron contribution =    -133.76067045 Ry
     hartree contribution      =      75.44063106 Ry
     xc contribution           =     -34.66337162 Ry
     ewald contribution        =    -160.04239524 Ry
     one-center paw contrib.   =     -76.15136195 Ry

     convergence has been achieved in  19 iterations

     Forces acting on atoms (cartesian axes, Ry/au):

     atom    1 type  1   force =     0.00000000    0.00000000    0.00000000

     Total force =     0.000000     Total SCF correction =     0.000000


     Computing stress (Cartesian axis) and pressure

          total   stress  (Ry/bohr**3)                   (kbar)     P=     -204.03
  -0.00055292  -0.00000000   0.00000000          -81.34       -0.00        0.00
  -0.00000000  -0.00055292   0.00000000           -0.00      -81.34        0.00
   0.00000000  -0.00000000  -0.00305515            0.00       -0.00     -449.43

     Energy error            =      3.6E-02 Ry
     Gradient error          =      0.0E+00 Ry/Bohr
     Cell gradient error     =      4.5E+02 kbar

     number of scf cycles    =  11
     number of bfgs steps    =   9

     enthalpy           old  =    -329.1507058582 Ry
     enthalpy           new  =    -329.1868457898 Ry

     CASE: enthalpy          _new < enthalpy          _old


     WARNING: bfgs curvature condition failed, Theta= 0.175
     new trust radius        =       0.6653671056 bohr
ibrav =      4
 celldm(1) =      4.50267234
 celldm(3) =      0.76153965
Input lattice vectors:
     0.78994252    -0.00000000     0.00000000
    -0.39497126     0.68411029    -0.00000000
    -0.00000000     0.00000000     0.60157255
New lattice vectors in INITIAL alat:
     0.78994252     0.00000000     0.00000000
    -0.39497126     0.68411029     0.00000000
     0.00000000     0.00000000     0.60157255
New lattice vectors in NEW alat (for information only):
     1.00000000     0.00000000     0.00000000
    -0.50000000     0.86602540     0.00000000
     0.00000000     0.00000000     0.76153965
Discrepancy in bohr =     0.000000    0.000000    0.000000

Atomic positions rescaled with new alat:
Fe            0.0000000000        0.0000000000        0.0000000000
     new conv_thr            =            1.0E-10 Ry

     new unit-cell volume =     60.20523 a.u.^3 (     8.92149 Ang^3 )
     density =     10.39431 g/cm^3

CELL_PARAMETERS (alat=  5.70000000)
   0.789942516   0.000000000   0.000000000
  -0.394971258   0.684110287   0.000000000
   0.000000000   0.000000000   0.601572551

ATOMIC_POSITIONS (alat)
Fe            0.0000000000        0.0000000000        0.0000000000



     Writing config-only to output data dir ./fe.save/
     NEW-OLD atomic charge density approx. for the potential

 %%%%%%%%%%%%%%%%%%%%%%%%%%%%%%%%%%%%%%%%%%%%%%%%%%%%%%%%%%%%%%%%%%%%%%%%%%%%%%
     Error in routine scale_h (1):
     Not enough space allocated for radial FFT: try restarting with a larger cell_factor.
 %%%%%%%%%%%%%%%%%%%%%%%%%%%%%%%%%%%%%%%%%%%%%%%%%%%%%%%%%%%%%%%%%%%%%%%%%%%%%%

     stopping ...
