
     Program PWSCF v.7.0 starts on 23Mar2022 at 19:50:14 

     This program is part of the open-source Quantum ESPRESSO suite
     for quantum simulation of materials; please cite
         "P. Giannozzi et al., J. Phys.:Condens. Matter 21 395502 (2009);
         "P. Giannozzi et al., J. Phys.:Condens. Matter 29 465901 (2017);
         "P. Giannozzi et al., J. Chem. Phys. 152 154105 (2020);
          URL http://www.quantum-espresso.org", 
     in publications or presentations arising from this work. More details at
     http://www.quantum-espresso.org/quote

     Parallel version (MPI), running on     1 processors

     MPI processes distributed on     1 nodes
     0 MiB available memory on the printing compute node when the environment starts

     Reading input from Ge.scf.in
     Message from routine read_cards :
     DEPRECATED: no units specified in ATOMIC_POSITIONS card
     Message from routine read_cards :
     ATOMIC_POSITIONS: units set to alat
Warning: card 13 13 13 0 0 0 ignored
Warning: card 12 12 12 0 0 0 ignored
Warning: card 11 11 11 0 0 0 ignored
Warning: card 10 10 10 0 0 0 ignored
Warning: card 9 9 9 0 0 0 ignored
Warning: card 8 8 8 0 0 0 ignored
Warning: card 7 7 7 0 0 0 ignored
Warning: card 6 6 6 0 0 0 ignored
Warning: card 5 5 5 0 0 0 ignored
Warning: card 4 4 4 0 0 0 ignored
Warning: card 3 3 3 0 0 0 ignored
Warning: card 2 2 2 0 0 0 ignored
Warning: card 1 1 1 0 0 0 ignored
Warning: card  8 8 8 0 0 0 ignored

     Current dimensions of program PWSCF are:
     Max number of different atomic species (ntypx) = 10
     Max number of k-points (npk) =  40000
     Max angular momentum in pseudopotentials (lmaxx) =  4

     Subspace diagonalization in iterative solution of the eigenvalue problem:
     a serial algorithm will be used


     G-vector sticks info
     --------------------
     sticks:   dense  smooth     PW     G-vecs:    dense   smooth      PW
     Sum        1261    1261    367                29603    29603    4693

     Using Slab Decomposition



     bravais-lattice index     =            2
     lattice parameter (alat)  =      10.6902  a.u.
     unit-cell volume          =     305.4184 (a.u.)^3
     number of atoms/cell      =            2
     number of atomic types    =            1
     number of electrons       =        28.00
     number of Kohn-Sham states=           14
     kinetic-energy cutoff     =      80.0000  Ry
     charge density cutoff     =     320.0000  Ry
     scf convergence threshold =      1.0E-06
     mixing beta               =       0.7000
     number of iterations used =            8  plain     mixing
     Exchange-correlation=  SLA  PW   PBX  PBC
                           (   1   4   3   4   0   0   0)

     celldm(1)=  10.690181  celldm(2)=   0.000000  celldm(3)=   0.000000
     celldm(4)=   0.000000  celldm(5)=   0.000000  celldm(6)=   0.000000

     crystal axes: (cart. coord. in units of alat)
               a(1) = (  -0.500000   0.000000   0.500000 )  
               a(2) = (   0.000000   0.500000   0.500000 )  
               a(3) = (  -0.500000   0.500000   0.000000 )  

     reciprocal axes: (cart. coord. in units 2 pi/alat)
               b(1) = ( -1.000000 -1.000000  1.000000 )  
               b(2) = (  1.000000  1.000000  1.000000 )  
               b(3) = ( -1.000000  1.000000 -1.000000 )  


     PseudoPot. # 1 for Ge read from file:
     ./ge_pbe_v1.4.uspp.F.UPF
     MD5 check sum: 9c9eaa91e581c3f09632fb3098b2c6b2
     Pseudo is Ultrasoft + core correction, Zval = 14.0
     Generated by new atomic code, or converted to UPF format
     Using radial grid of  873 points,  6 beta functions with: 
                l(1) =   0
                l(2) =   0
                l(3) =   1
                l(4) =   1
                l(5) =   2
                l(6) =   2
     Q(r) pseudized with  8 coefficients,  rinner =    1.400   1.400   1.400
                                                       1.400   1.400

     atomic species   valence    mass     pseudopotential
        Ge            14.00    72.64000     Ge( 1.00)

      4 Sym. Ops. (no inversion) found



   Cartesian axes

     site n.     atom                  positions (alat units)
         1           Ge  tau(   1) = (   0.0000000   0.0000000   0.0500000  )
         2           Ge  tau(   2) = (   0.2500000   0.2500000   0.2500000  )

     number of k points=   428

     Number of k-points >= 100: set verbosity='high' to print them.

     Dense  grid:    29603 G-vectors     FFT dimensions: (  45,  45,  45)

     Estimated max dynamical RAM per process >     446.25 MB

     Check: negative core charge=   -0.000001

     Initial potential from superposition of free atoms

     starting charge      27.9983, renormalised to      28.0000
     Starting wfcs are   18 randomized atomic wfcs

     total cpu time spent up to now is       16.6 secs

     Self-consistent Calculation

     iteration #  1     ecut=    80.00 Ry     beta= 0.70
     Davidson diagonalization with overlap
     ethr =  1.00E-02,  avg # of iterations =  1.9

     Threshold (ethr) on eigenvalues was too large:
     Diagonalizing with lowered threshold

     Davidson diagonalization with overlap
     ethr =  1.16E-04,  avg # of iterations =  2.0

     total cpu time spent up to now is       95.5 secs

     total energy              =    -427.26609441 Ry
     estimated scf accuracy    <       0.03401383 Ry

     iteration #  2     ecut=    80.00 Ry     beta= 0.70
     Davidson diagonalization with overlap
     ethr =  1.21E-04,  avg # of iterations =  1.0

     total cpu time spent up to now is      132.7 secs

     total energy              =    -427.26711418 Ry
     estimated scf accuracy    <       0.00177155 Ry

     iteration #  3     ecut=    80.00 Ry     beta= 0.70
     Davidson diagonalization with overlap
     ethr =  6.33E-06,  avg # of iterations =  2.4

     total cpu time spent up to now is      174.4 secs

     total energy              =    -427.26728333 Ry
     estimated scf accuracy    <       0.00003883 Ry

     iteration #  4     ecut=    80.00 Ry     beta= 0.70
     Davidson diagonalization with overlap
     ethr =  1.39E-07,  avg # of iterations =  3.5

     total cpu time spent up to now is      225.8 secs

     total energy              =    -427.26730498 Ry
     estimated scf accuracy    <       0.00000444 Ry

     iteration #  5     ecut=    80.00 Ry     beta= 0.70
     Davidson diagonalization with overlap
     ethr =  1.59E-08,  avg # of iterations =  2.6

     total cpu time spent up to now is      272.9 secs

     End of self-consistent calculation

     Number of k-points >= 100: set verbosity='high' to print the bands.

     highest occupied level (ev):     9.5912

!    total energy              =    -427.26730570 Ry
     estimated scf accuracy    <       0.00000022 Ry

     The total energy is the sum of the following terms:
     one-electron contribution =    -279.54384631 Ry
     hartree contribution      =     165.70253713 Ry
     xc contribution           =    -116.64200445 Ry
     ewald contribution        =    -196.78399207 Ry

     convergence has been achieved in   5 iterations

     Forces acting on atoms (cartesian axes, Ry/au):

     atom    1 type  1   force =     0.00000000    0.00000000   -0.11795773
     atom    2 type  1   force =    -0.00000000   -0.00000000    0.11795773

     Total force =     0.166817     Total SCF correction =     0.002536

     Writing all to output data dir ./temp/Germanium.save/

     init_run     :     16.16s CPU     16.54s WALL (       1 calls)
     electrons    :    252.84s CPU    256.27s WALL (       1 calls)
     forces       :      2.14s CPU      2.22s WALL (       1 calls)

     Called by init_run:
     wfcinit      :     15.42s CPU     15.77s WALL (       1 calls)
     potinit      :      0.04s CPU      0.04s WALL (       1 calls)
     hinit0       :      0.41s CPU      0.42s WALL (       1 calls)

     Called by electrons:
     c_bands      :    209.51s CPU    212.37s WALL (       6 calls)
     sum_band     :     42.88s CPU     43.41s WALL (       6 calls)
     v_of_rho     :      0.19s CPU      0.19s WALL (       6 calls)
     newd         :      0.34s CPU      0.37s WALL (       6 calls)
     mix_rho      :      0.01s CPU      0.01s WALL (       6 calls)

     Called by c_bands:
     init_us_2    :      7.77s CPU      7.90s WALL (    5992 calls)
     init_us_2:cp :      7.77s CPU      7.90s WALL (    5992 calls)
     cegterg      :    163.11s CPU    165.79s WALL (    2568 calls)

     Called by *egterg:
     cdiaghg      :      1.12s CPU      1.13s WALL (    7906 calls)
     h_psi        :    157.68s CPU    159.18s WALL (    8762 calls)
     s_psi        :      2.25s CPU      2.39s WALL (    8762 calls)
     g_psi        :      1.62s CPU      1.62s WALL (    5766 calls)

     Called by h_psi:
     h_psi:calbec :      3.43s CPU      4.23s WALL (    8762 calls)
     vloc_psi     :    151.31s CPU    151.76s WALL (    8762 calls)
     add_vuspsi   :      2.46s CPU      2.66s WALL (    8762 calls)

     General routines
     calbec       :      5.08s CPU      6.18s WALL (   13042 calls)
     fft          :      0.06s CPU      0.06s WALL (      78 calls)
     ffts         :      0.00s CPU      0.00s WALL (       6 calls)
     fftw         :    101.52s CPU    101.82s WALL (  226324 calls)

     Parallel routines

     PWSCF        :   4m31.42s CPU   4m35.61s WALL


   This run was terminated on:  19:54:49  23Mar2022            

=------------------------------------------------------------------------------=
   JOB DONE.
=------------------------------------------------------------------------------=
